 vasp.5.3.3 18Dez12 (build Apr  3 2013 12:00:03) complex                        
  
 executed on             LinuxIFC date 2017.03.10  14:34:44
 serial version


--------------------------------------------------------------------------------------------------------


 INCAR:
 POTCAR:   PAW_PBE Si 05Jan2001                   
 POTCAR:   PAW_PBE Si 05Jan2001                   
   VRHFIN =Si: s2p2                                                             
   LEXCH  = PE                                                                  
   EATOM  =   103.0669 eV,    7.5752 Ry                                         
                                                                                
   TITEL  = PAW_PBE Si 05Jan2001                                                
   LULTRA =        F    use ultrasoft PP ?                                      
   IUNSCR =        1    unscreen: 0-lin 1-nonlin 2-no                           
   RPACOR =    1.500    partial core radius                                     
   POMASS =   28.085; ZVAL   =    4.000    mass and valenz                      
   RCORE  =    1.900    outmost cutoff radius                                   
   RWIGS  =    2.480; RWIGS  =    1.312    wigner-seitz radius (au A)           
   ENMAX  =  245.345; ENMIN  =  184.009 eV                                      
   ICORE  =        2    local potential                                         
   LCOR   =        T    correct aug charges                                     
   LPAW   =        T    paw PP                                                  
   EAUG   =  322.069                                                            
   DEXC   =    -.007                                                            
   RMAX   =    2.944    core radius for proj-oper                               
   RAUG   =    1.300    factor for augmentation sphere                          
   RDEP   =    1.993    radius for radial grids                                 
   QCUT   =   -4.246; QGAM   =    8.493    optimization parameters              
                                                                                
   Description                                                                  
     l     E      TYP  RCUT    TYP  RCUT                                        
     0   .000     23  1.900                                                     
     0   .000     23  1.900                                                     
     1   .000     23  1.900                                                     
     1   .000     23  1.900                                                     
     2   .000      7  1.900                                                     
  local pseudopotential read in
  partial core-charges read in
  atomic valenz-charges read in
  non local Contribution for L=           0  read in
    real space projection operators read in
  non local Contribution for L=           0  read in
    real space projection operators read in
  non local Contribution for L=           1  read in
    real space projection operators read in
  non local Contribution for L=           1  read in
    real space projection operators read in
    PAW grid and wavefunctions read in
 
   number of l-projection  operators is LMAX  =           4
   number of lm-projection operators is LMMAX =           8
 
 PAW_PBE Si 05Jan2001                   :
 energy of atom  1       EATOM= -103.0669
 kinetic energy error for atom=    0.0012 (will be added to EATOM!!)
 
 
 POSCAR:  Diamond Structure Silicon              
  positions in direct lattice
  velocities in cartesian coordinates
  No initial velocities read in
 exchange correlation table for  LEXCH =        8
   RHO(1)=    0.500       N(1)  =     2000
   RHO(2)=  100.500       N(2)  =     4000
 


--------------------------------------------------------------------------------------------------------


 ion  position               nearest neighbor table
   1  0.875  0.875  0.875-   2 2.35   2 2.35   2 2.35   2 2.35
   2  0.125  0.125  0.125-   1 2.35   1 2.35   1 2.35   1 2.35
 
  LATTYP: Found a face centered cubic cell.
 ALAT       =     5.4300000000
  
  Lattice vectors:
  
 A1 = (   0.0000000000,   2.7150000000,   2.7150000000)
 A2 = (   2.7150000000,   0.0000000000,   2.7150000000)
 A3 = (   2.7150000000,   2.7150000000,   0.0000000000)


Analysis of symmetry for initial positions (statically):
=====================================================================
 Subroutine PRICEL returns:
 Original cell was already a primitive cell.
 

 Routine SETGRP: Setting up the symmetry group for a 
 face centered cubic supercell.


 Subroutine GETGRP returns: Found 48 space group operations
 (whereof 12 operations were pure point group operations)
 out of a pool of 48 trial point group operations.


The static configuration has the point symmetry D_3d.
 The point group associated with its full space group is O_h .


Analysis of symmetry for dynamics (positions and initial velocities):
=====================================================================
 Subroutine PRICEL returns:
 Original cell was already a primitive cell.
 

 Routine SETGRP: Setting up the symmetry group for a 
 face centered cubic supercell.


 Subroutine GETGRP returns: Found 48 space group operations
 (whereof 12 operations were pure point group operations)
 out of a pool of 48 trial point group operations.


The dynamic configuration has the point symmetry D_3d.
 The point group associated with its full space group is O_h .


 irot  :   1
 --------------------------------------------------------------------
 isymop:   1   0   0
           0   1   0
           0   0   1

 gtrans:     0.0000000     0.0000000     0.0000000

 ptrans:     0.0000000     0.0000000     0.0000000
 rotmap:
 (   1->   1)  (   2->   2) 


 irot  :   2
 --------------------------------------------------------------------
 isymop:  -1   0   0
           0  -1   0
           0   0  -1

 gtrans:     0.0000000     0.0000000     0.0000000

 ptrans:     0.0000000     0.0000000     0.0000000
 rotmap:
 (   1->   2)  (   2->   1) 


 irot  :   3
 --------------------------------------------------------------------
 isymop:   0   0   1
           1   0   0
           0   1   0

 gtrans:     0.0000000     0.0000000     0.0000000

 ptrans:     0.0000000     0.0000000     0.0000000
 rotmap:
 (   1->   1)  (   2->   2) 


 irot  :   4
 --------------------------------------------------------------------
 isymop:   0   0  -1
          -1   0   0
           0  -1   0

 gtrans:     0.0000000     0.0000000     0.0000000

 ptrans:     0.0000000     0.0000000     0.0000000
 rotmap:
 (   1->   2)  (   2->   1) 


 irot  :   5
 --------------------------------------------------------------------
 isymop:   0   1   0
           0   0   1
           1   0   0

 gtrans:     0.0000000     0.0000000     0.0000000

 ptrans:     0.0000000     0.0000000     0.0000000
 rotmap:
 (   1->   1)  (   2->   2) 


 irot  :   6
 --------------------------------------------------------------------
 isymop:   0  -1   0
           0   0  -1
          -1   0   0

 gtrans:     0.0000000     0.0000000     0.0000000

 ptrans:     0.0000000     0.0000000     0.0000000
 rotmap:
 (   1->   2)  (   2->   1) 


 irot  :   7
 --------------------------------------------------------------------
 isymop:  -1   0   0
           0   0  -1
           0  -1   0

 gtrans:     0.0000000     0.0000000     0.0000000

 ptrans:     0.0000000     0.0000000     0.0000000
 rotmap:
 (   1->   2)  (   2->   1) 


 irot  :   8
 --------------------------------------------------------------------
 isymop:   1   0   0
           0   0   1
           0   1   0

 gtrans:     0.0000000     0.0000000     0.0000000

 ptrans:     0.0000000     0.0000000     0.0000000
 rotmap:
 (   1->   1)  (   2->   2) 


 irot  :   9
 --------------------------------------------------------------------
 isymop:   0  -1   0
          -1   0   0
           0   0  -1

 gtrans:     0.0000000     0.0000000     0.0000000

 ptrans:     0.0000000     0.0000000     0.0000000
 rotmap:
 (   1->   2)  (   2->   1) 


 irot  :  10
 --------------------------------------------------------------------
 isymop:   0   1   0
           1   0   0
           0   0   1

 gtrans:     0.0000000     0.0000000     0.0000000

 ptrans:     0.0000000     0.0000000     0.0000000
 rotmap:
 (   1->   1)  (   2->   2) 


 irot  :  11
 --------------------------------------------------------------------
 isymop:   0   0  -1
           0  -1   0
          -1   0   0

 gtrans:     0.0000000     0.0000000     0.0000000

 ptrans:     0.0000000     0.0000000     0.0000000
 rotmap:
 (   1->   2)  (   2->   1) 


 irot  :  12
 --------------------------------------------------------------------
 isymop:   0   0   1
           0   1   0
           1   0   0

 gtrans:     0.0000000     0.0000000     0.0000000

 ptrans:     0.0000000     0.0000000     0.0000000
 rotmap:
 (   1->   1)  (   2->   2) 


 irot  :  13
 --------------------------------------------------------------------
 isymop:   1   1   1
           0   0  -1
          -1   0   0

 gtrans:     0.5000000     0.0000000     0.0000000

 ptrans:     0.0000000     0.0000000     0.0000000
 rotmap:
 (   1->   2)  (   2->   1) 


 irot  :  14
 --------------------------------------------------------------------
 isymop:  -1  -1  -1
           0   0   1
           1   0   0

 gtrans:     0.5000000     0.0000000     0.0000000

 ptrans:     0.0000000     0.0000000     0.0000000
 rotmap:
 (   1->   1)  (   2->   2) 


 irot  :  15
 --------------------------------------------------------------------
 isymop:   1   1   1
           0  -1   0
           0   0  -1

 gtrans:     0.5000000     0.0000000     0.0000000

 ptrans:     0.0000000     0.0000000     0.0000000
 rotmap:
 (   1->   2)  (   2->   1) 


 irot  :  16
 --------------------------------------------------------------------
 isymop:  -1  -1  -1
           0   1   0
           0   0   1

 gtrans:     0.5000000     0.0000000     0.0000000

 ptrans:     0.0000000     0.0000000     0.0000000
 rotmap:
 (   1->   1)  (   2->   2) 


 irot  :  17
 --------------------------------------------------------------------
 isymop:   1   1   1
          -1   0   0
           0  -1   0

 gtrans:     0.5000000     0.0000000     0.0000000

 ptrans:     0.0000000     0.0000000     0.0000000
 rotmap:
 (   1->   2)  (   2->   1) 


 irot  :  18
 --------------------------------------------------------------------
 isymop:  -1  -1  -1
           1   0   0
           0   1   0

 gtrans:     0.5000000     0.0000000     0.0000000

 ptrans:     0.0000000     0.0000000     0.0000000
 rotmap:
 (   1->   1)  (   2->   2) 


 irot  :  19
 --------------------------------------------------------------------
 isymop:   0   1   0
           1   0   0
          -1  -1  -1

 gtrans:     0.0000000     0.0000000     0.5000000

 ptrans:     0.0000000     0.0000000     0.0000000
 rotmap:
 (   1->   1)  (   2->   2) 


 irot  :  20
 --------------------------------------------------------------------
 isymop:   0  -1   0
          -1   0   0
           1   1   1

 gtrans:     0.0000000     0.0000000     0.5000000

 ptrans:     0.0000000     0.0000000     0.0000000
 rotmap:
 (   1->   2)  (   2->   1) 


 irot  :  21
 --------------------------------------------------------------------
 isymop:   1   0   0
           0   0   1
          -1  -1  -1

 gtrans:     0.0000000     0.0000000     0.5000000

 ptrans:     0.0000000     0.0000000     0.0000000
 rotmap:
 (   1->   1)  (   2->   2) 


 irot  :  22
 --------------------------------------------------------------------
 isymop:  -1   0   0
           0   0  -1
           1   1   1

 gtrans:     0.0000000     0.0000000     0.5000000

 ptrans:     0.0000000     0.0000000     0.0000000
 rotmap:
 (   1->   2)  (   2->   1) 


 irot  :  23
 --------------------------------------------------------------------
 isymop:   0   0   1
           0   1   0
          -1  -1  -1

 gtrans:     0.0000000     0.0000000     0.5000000

 ptrans:     0.0000000     0.0000000     0.0000000
 rotmap:
 (   1->   1)  (   2->   2) 


 irot  :  24
 --------------------------------------------------------------------
 isymop:   0   0  -1
           0  -1   0
           1   1   1

 gtrans:     0.0000000     0.0000000     0.5000000

 ptrans:     0.0000000     0.0000000     0.0000000
 rotmap:
 (   1->   2)  (   2->   1) 


 irot  :  25
 --------------------------------------------------------------------
 isymop:   0   0  -1
           1   1   1
           0  -1   0

 gtrans:     0.0000000     0.5000000     0.0000000

 ptrans:     0.0000000     0.0000000     0.0000000
 rotmap:
 (   1->   2)  (   2->   1) 


 irot  :  26
 --------------------------------------------------------------------
 isymop:   0   0   1
          -1  -1  -1
           0   1   0

 gtrans:     0.0000000     0.5000000     0.0000000

 ptrans:     0.0000000     0.0000000     0.0000000
 rotmap:
 (   1->   1)  (   2->   2) 


 irot  :  27
 --------------------------------------------------------------------
 isymop:   0  -1   0
           1   1   1
          -1   0   0

 gtrans:     0.0000000     0.5000000     0.0000000

 ptrans:     0.0000000     0.0000000     0.0000000
 rotmap:
 (   1->   2)  (   2->   1) 


 irot  :  28
 --------------------------------------------------------------------
 isymop:   0   1   0
          -1  -1  -1
           1   0   0

 gtrans:     0.0000000     0.5000000     0.0000000

 ptrans:     0.0000000     0.0000000     0.0000000
 rotmap:
 (   1->   1)  (   2->   2) 


 irot  :  29
 --------------------------------------------------------------------
 isymop:  -1   0   0
           1   1   1
           0   0  -1

 gtrans:     0.0000000     0.5000000     0.0000000

 ptrans:     0.0000000     0.0000000     0.0000000
 rotmap:
 (   1->   2)  (   2->   1) 


 irot  :  30
 --------------------------------------------------------------------
 isymop:   1   0   0
          -1  -1  -1
           0   0   1

 gtrans:     0.0000000     0.5000000     0.0000000

 ptrans:     0.0000000     0.0000000     0.0000000
 rotmap:
 (   1->   1)  (   2->   2) 


 irot  :  31
 --------------------------------------------------------------------
 isymop:  -1  -1  -1
           0   1   0
           1   0   0

 gtrans:     0.5000000     0.0000000     0.0000000

 ptrans:     0.0000000     0.0000000     0.0000000
 rotmap:
 (   1->   1)  (   2->   2) 


 irot  :  32
 --------------------------------------------------------------------
 isymop:   1   1   1
           0  -1   0
          -1   0   0

 gtrans:     0.5000000     0.0000000     0.0000000

 ptrans:     0.0000000     0.0000000     0.0000000
 rotmap:
 (   1->   2)  (   2->   1) 


 irot  :  33
 --------------------------------------------------------------------
 isymop:  -1  -1  -1
           1   0   0
           0   0   1

 gtrans:     0.5000000     0.0000000     0.0000000

 ptrans:     0.0000000     0.0000000     0.0000000
 rotmap:
 (   1->   1)  (   2->   2) 


 irot  :  34
 --------------------------------------------------------------------
 isymop:   1   1   1
          -1   0   0
           0   0  -1

 gtrans:     0.5000000     0.0000000     0.0000000

 ptrans:     0.0000000     0.0000000     0.0000000
 rotmap:
 (   1->   2)  (   2->   1) 


 irot  :  35
 --------------------------------------------------------------------
 isymop:  -1  -1  -1
           0   0   1
           0   1   0

 gtrans:     0.5000000     0.0000000     0.0000000

 ptrans:     0.0000000     0.0000000     0.0000000
 rotmap:
 (   1->   1)  (   2->   2) 


 irot  :  36
 --------------------------------------------------------------------
 isymop:   1   1   1
           0   0  -1
           0  -1   0

 gtrans:     0.5000000     0.0000000     0.0000000

 ptrans:     0.0000000     0.0000000     0.0000000
 rotmap:
 (   1->   2)  (   2->   1) 


 irot  :  37
 --------------------------------------------------------------------
 isymop:   0  -1   0
           0   0  -1
           1   1   1

 gtrans:     0.0000000     0.0000000     0.5000000

 ptrans:     0.0000000     0.0000000     0.0000000
 rotmap:
 (   1->   2)  (   2->   1) 


 irot  :  38
 --------------------------------------------------------------------
 isymop:   0   1   0
           0   0   1
          -1  -1  -1

 gtrans:     0.0000000     0.0000000     0.5000000

 ptrans:     0.0000000     0.0000000     0.0000000
 rotmap:
 (   1->   1)  (   2->   2) 


 irot  :  39
 --------------------------------------------------------------------
 isymop:  -1   0   0
           0  -1   0
           1   1   1

 gtrans:     0.0000000     0.0000000     0.5000000

 ptrans:     0.0000000     0.0000000     0.0000000
 rotmap:
 (   1->   2)  (   2->   1) 


 irot  :  40
 --------------------------------------------------------------------
 isymop:   1   0   0
           0   1   0
          -1  -1  -1

 gtrans:     0.0000000     0.0000000     0.5000000

 ptrans:     0.0000000     0.0000000     0.0000000
 rotmap:
 (   1->   1)  (   2->   2) 


 irot  :  41
 --------------------------------------------------------------------
 isymop:   0   0  -1
          -1   0   0
           1   1   1

 gtrans:     0.0000000     0.0000000     0.5000000

 ptrans:     0.0000000     0.0000000     0.0000000
 rotmap:
 (   1->   2)  (   2->   1) 


 irot  :  42
 --------------------------------------------------------------------
 isymop:   0   0   1
           1   0   0
          -1  -1  -1

 gtrans:     0.0000000     0.0000000     0.5000000

 ptrans:     0.0000000     0.0000000     0.0000000
 rotmap:
 (   1->   1)  (   2->   2) 


 irot  :  43
 --------------------------------------------------------------------
 isymop:   1   0   0
          -1  -1  -1
           0   1   0

 gtrans:     0.0000000     0.5000000     0.0000000

 ptrans:     0.0000000     0.0000000     0.0000000
 rotmap:
 (   1->   1)  (   2->   2) 


 irot  :  44
 --------------------------------------------------------------------
 isymop:  -1   0   0
           1   1   1
           0  -1   0

 gtrans:     0.0000000     0.5000000     0.0000000

 ptrans:     0.0000000     0.0000000     0.0000000
 rotmap:
 (   1->   2)  (   2->   1) 


 irot  :  45
 --------------------------------------------------------------------
 isymop:   0   0   1
          -1  -1  -1
           1   0   0

 gtrans:     0.0000000     0.5000000     0.0000000

 ptrans:     0.0000000     0.0000000     0.0000000
 rotmap:
 (   1->   1)  (   2->   2) 


 irot  :  46
 --------------------------------------------------------------------
 isymop:   0   0  -1
           1   1   1
          -1   0   0

 gtrans:     0.0000000     0.5000000     0.0000000

 ptrans:     0.0000000     0.0000000     0.0000000
 rotmap:
 (   1->   2)  (   2->   1) 


 irot  :  47
 --------------------------------------------------------------------
 isymop:   0   1   0
          -1  -1  -1
           0   0   1

 gtrans:     0.0000000     0.5000000     0.0000000

 ptrans:     0.0000000     0.0000000     0.0000000
 rotmap:
 (   1->   1)  (   2->   2) 


 irot  :  48
 --------------------------------------------------------------------
 isymop:   0  -1   0
           1   1   1
           0   0  -1

 gtrans:     0.0000000     0.5000000     0.0000000

 ptrans:     0.0000000     0.0000000     0.0000000
 rotmap:
 (   1->   2)  (   2->   1) 
 
 
 KPOINTS: k-points along high symmetry lines      
  interpolating k-points between supplied coordinates
  k-points in reciprocal lattice
Space group operators:
 irot       det(A)        alpha          n_x          n_y          n_z        tau_x        tau_y        tau_z
    1     1.000000     0.000001     1.000000     0.000000     0.000000     0.000000     0.000000     0.000000
    2    -1.000000     0.000001     1.000000     0.000000     0.000000     0.000000     0.000000     0.000000
    3     1.000000   120.000000    -0.577350    -0.577350    -0.577350     0.000000     0.000000     0.000000
    4    -1.000000   120.000000    -0.577350    -0.577350    -0.577350     0.000000     0.000000     0.000000
    5     1.000000   120.000000     0.577350     0.577350     0.577350     0.000000     0.000000     0.000000
    6    -1.000000   120.000000     0.577350     0.577350     0.577350     0.000000     0.000000     0.000000
    7     1.000000   180.000000     0.000000    -0.707107     0.707107     0.000000     0.000000     0.000000
    8    -1.000000   180.000000     0.000000    -0.707107     0.707107     0.000000     0.000000     0.000000
    9     1.000000   180.000000     0.707107    -0.707107     0.000000     0.000000     0.000000     0.000000
   10    -1.000000   180.000000     0.707107    -0.707107     0.000000     0.000000     0.000000     0.000000
   11     1.000000   180.000000     0.707107     0.000000    -0.707107     0.000000     0.000000     0.000000
   12    -1.000000   180.000000     0.707107     0.000000    -0.707107     0.000000     0.000000     0.000000
   13     1.000000    90.000000     0.000000     0.000000    -1.000000     0.500000     0.000000     0.000000
   14    -1.000000    90.000000     0.000000     0.000000    -1.000000     0.500000     0.000000     0.000000
   15     1.000000   180.000000     0.000000     0.707107     0.707107     0.500000     0.000000     0.000000
   16    -1.000000   180.000000     0.000000     0.707107     0.707107     0.500000     0.000000     0.000000
   17     1.000000    90.000000     0.000000     1.000000     0.000000     0.500000     0.000000     0.000000
   18    -1.000000    90.000000     0.000000     1.000000     0.000000     0.500000     0.000000     0.000000
   19     1.000000   180.000000     0.000000     0.000000     1.000000     0.000000     0.000000     0.500000
   20    -1.000000   180.000000     0.000000     0.000000     1.000000     0.000000     0.000000     0.500000
   21     1.000000   120.000000    -0.577350     0.577350     0.577350     0.000000     0.000000     0.500000
   22    -1.000000   120.000000    -0.577350     0.577350     0.577350     0.000000     0.000000     0.500000
   23     1.000000   120.000000    -0.577350     0.577350    -0.577350     0.000000     0.000000     0.500000
   24    -1.000000   120.000000    -0.577350     0.577350    -0.577350     0.000000     0.000000     0.500000
   25     1.000000    90.000000     0.000000     0.000000     1.000000     0.000000     0.500000     0.000000
   26    -1.000000    90.000000     0.000000     0.000000     1.000000     0.000000     0.500000     0.000000
   27     1.000000    90.000000    -1.000000     0.000000     0.000000     0.000000     0.500000     0.000000
   28    -1.000000    90.000000    -1.000000     0.000000     0.000000     0.000000     0.500000     0.000000
   29     1.000000   180.000000     0.707107     0.000000     0.707107     0.000000     0.500000     0.000000
   30    -1.000000   180.000000     0.707107     0.000000     0.707107     0.000000     0.500000     0.000000
   31     1.000000   120.000000     0.577350    -0.577350     0.577350     0.500000     0.000000     0.000000
   32    -1.000000   120.000000     0.577350    -0.577350     0.577350     0.500000     0.000000     0.000000
   33     1.000000   120.000000    -0.577350    -0.577350     0.577350     0.500000     0.000000     0.000000
   34    -1.000000   120.000000    -0.577350    -0.577350     0.577350     0.500000     0.000000     0.000000
   35     1.000000   180.000000     1.000000     0.000000     0.000000     0.500000     0.000000     0.000000
   36    -1.000000   180.000000     1.000000     0.000000     0.000000     0.500000     0.000000     0.000000
   37     1.000000    90.000000     0.000000    -1.000000     0.000000     0.000000     0.000000     0.500000
   38    -1.000000    90.000000     0.000000    -1.000000     0.000000     0.000000     0.000000     0.500000
   39     1.000000   180.000000     0.707107     0.707107     0.000000     0.000000     0.000000     0.500000
   40    -1.000000   180.000000     0.707107     0.707107     0.000000     0.000000     0.000000     0.500000
   41     1.000000    90.000000     1.000000     0.000000     0.000000     0.000000     0.000000     0.500000
   42    -1.000000    90.000000     1.000000     0.000000     0.000000     0.000000     0.000000     0.500000
   43     1.000000   120.000000     0.577350    -0.577350    -0.577350     0.000000     0.500000     0.000000
   44    -1.000000   120.000000     0.577350    -0.577350    -0.577350     0.000000     0.500000     0.000000
   45     1.000000   180.000000     0.000000     1.000000     0.000000     0.000000     0.500000     0.000000
   46    -1.000000   180.000000     0.000000     1.000000     0.000000     0.000000     0.500000     0.000000
   47     1.000000   120.000000     0.577350     0.577350    -0.577350     0.000000     0.500000     0.000000
   48    -1.000000   120.000000     0.577350     0.577350    -0.577350     0.000000     0.500000     0.000000


--------------------------------------------------------------------------------------------------------




 Dimension of arrays:
   k-points           NKPTS =    250   k-points in BZ     NKDIM =    250   number of bands    NBANDS=     20
   number of dos      NEDOS =    301   number of ions     NIONS =      2
   non local maximal  LDIM  =      4   non local SUM 2l+1 LMDIM =      8
   total plane-waves  NPLWV =  21952
   max r-space proj   IRMAX =      1   max aug-charges    IRDMAX=  18535
   dimension x,y,z NGX =    28 NGY =   28 NGZ =   28
   dimension x,y,z NGXF=    56 NGYF=   56 NGZF=   56
   support grid    NGXF=    56 NGYF=   56 NGZF=   56
   ions per type =               2
 NGX,Y,Z   is equivalent  to a cutoff of  12.12, 12.12, 12.12 a.u.
 NGXF,Y,Z  is equivalent  to a cutoff of  24.25, 24.25, 24.25 a.u.


 I would recommend the setting:
   dimension x,y,z NGX =    25 NGY =   25 NGZ =   25
 SYSTEM =  unknown system                          
 POSCAR =   Diamond Structure Silicon              

 Startparameter for this run:
   NWRITE =      2    write-flag & timer
   PREC   = accura    normal or accurate (medium, high low for compatibility)
   ISTART =      1    job   : 0-new  1-cont  2-samecut
   ICHARG =     11    charge: 1-file 2-atom 10-const
   ISPIN  =      1    spin polarized calculation?
   LNONCOLLINEAR =      F non collinear calculations
   LSORBIT =      F    spin-orbit coupling
   INIWAV =      1    electr: 0-lowe 1-rand  2-diag
   LASPH  =      F    aspherical Exc in radial PAW
   METAGGA=      F    non-selfconsistent MetaGGA calc.

 Electronic Relaxation 1
   ENCUT  =  400.0 eV  29.40 Ry    5.42 a.u.   6.26  6.26  6.26*2*pi/ulx,y,z
   ENINI  =  400.0     initial cutoff
   ENAUG  =  322.1 eV  augmentation charge cutoff
   NELM   =     60;   NELMIN=  2; NELMDL=  0     # of ELM steps 
   EDIFF  = 0.1E-03   stopping-criterion for ELM
   LREAL  =      F    real-space projection
   NLSPLINE    = F    spline interpolate recip. space projectors
   LCOMPAT=      F    compatible to vasp.4.4
   GGA_COMPAT  = T    GGA compatible to vasp.4.4-vasp.4.6
   LMAXPAW     = -100 max onsite density
   LMAXMIX     =    2 max onsite mixed and CHGCAR
   VOSKOWN=      0    Vosko Wilk Nusair interpolation
   ROPT   =    0.00000
 Ionic relaxation
   EDIFFG = 0.1E-02   stopping-criterion for IOM
   NSW    =    100    number of steps for IOM
   NBLOCK =      1;   KBLOCK =    100    inner block; outer block 
   IBRION =      2    ionic relax: 0-MD 1-quasi-New 2-CG
   NFREE  =      1    steps in history (QN), initial steepest desc. (CG)
   ISIF   =      5    stress and relaxation
   IWAVPR =     11    prediction:  0-non 1-charg 2-wave 3-comb
   ISYM   =      2    0-nonsym 1-usesym 2-fastsym
   LCORR  =      T    Harris-Foulkes like correction to forces

   POTIM  = 0.5000    time-step for ionic-motion
   TEIN   =    0.0    initial temperature
   TEBEG  =    0.0;   TEEND  =   0.0 temperature during run
   SMASS  =  -3.00    Nose mass-parameter (am)
   estimated Nose-frequenzy (Omega)   =  0.10E-29 period in steps =****** mass=  -0.337E-27a.u.
   SCALEE = 1.0000    scale energy and forces
   NPACO  =    256;   APACO  = 16.0  distance and # of slots for P.C.
   PSTRESS=    0.0 pullay stress

  Mass of Ions in am
   POMASS =  28.09
  Ionic Valenz
   ZVAL   =   4.00
  Atomic Wigner-Seitz radii
   RWIGS  =  -1.00
  virtual crystal weights 
   VCA    =   1.00
   NELECT =       8.0000    total number of electrons
   NUPDOWN=      -1.0000    fix difference up-down

 DOS related values:
   EMIN   =  10.00;   EMAX   =-10.00  energy-range for DOS
   EFERMI =   0.00
   ISMEAR =    -1;   SIGMA  =   0.00  broadening in eV -4-tet -1-fermi 0-gaus

 Electronic relaxation 2 (details)
   IALGO  =     38    algorithm
   LDIAG  =      T    sub-space diagonalisation (order eigenvalues)
   LSUBROT=      T    optimize rotation matrix (better conditioning)
   TURBO    =      0    0=normal 1=particle mesh
   IRESTART =      0    0=no restart 2=restart with 2 vectors
   NREBOOT  =      0    no. of reboots
   NMIN     =      0    reboot dimension
   EREF     =   0.00    reference energy to select bands
   IMIX   =      4    mixing-type and parameters
     AMIX     =   0.40;   BMIX     =  1.00
     AMIX_MAG =   1.60;   BMIX_MAG =  1.00
     AMIN     =   0.10
     WC   =   100.;   INIMIX=   1;  MIXPRE=   1;  MAXMIX= -45

 Intra band minimization:
   WEIMIN = 0.0010     energy-eigenvalue tresh-hold
   EBREAK =  0.13E-05  absolut break condition
   DEPER  =   0.30     relativ break condition  

   TIME   =   0.40     timestep for ELM

  volume/ion in A,a.u.               =      20.01       135.05
  Fermi-wavevector in a.u.,A,eV,Ry     =   0.957176  1.808800 12.465458  0.916185
  Thomas-Fermi vector in A             =   2.086170
 
 Write flags
   LWAVE  =      T    write WAVECAR
   LCHARG =      T    write CHGCAR
   LVTOT  =      F    write LOCPOT, total local potential
   LVHAR  =      F    write LOCPOT, Hartree potential only
   LELF   =      F    write electronic localiz. function (ELF)
   LORBIT =      0    0 simple, 1 ext, 2 COOP (PROOUT)


 Dipole corrections
   LMONO  =      F    monopole corrections only (constant potential shift)
   LDIPOL =      F    correct potential (dipole corrections)
   IDIPOL =      0    1-x, 2-y, 3-z, 4-all directions 
   EPSILON=  1.0000000 bulk dielectric constant

 Exchange correlation treatment:
   GGA     =    --    GGA type
   LEXCH   =     8    internal setting for exchange type
   VOSKOWN=      0    Vosko Wilk Nusair interpolation
   LHFCALC =     F    Hartree Fock is set to
   LHFONE  =     F    Hartree Fock one center treatment
   AEXX    =    0.0000 exact exchange contribution

 Linear response parameters
   LEPSILON=     F    determine dielectric tensor
   LRPA    =     F    only Hartree local field effects (RPA)
   LNABLA  =     F    use nabla operator in PAW spheres
   LVEL    =     F    velocity operator in full k-point grid
   LINTERFAST=   F  fast interpolation
   KINTER  =     0    interpolate to denser k-point grid
   CSHIFT  =0.1000    complex shift for real part using Kramers Kronig
   OMEGAMAX=  -1.0    maximum frequency
   DEG_THRESHOLD= 0.2000000E-02 threshold for treating states as degnerate
   RTIME   =    0.100 relaxation time in fs

 Orbital magnetization related:
   ORBITALMAG=     F  switch on orbital magnetization
   LCHIMAG   =     F  perturbation theory with respect to B field
   DQ        =  0.001000  dq finite difference perturbation B field



--------------------------------------------------------------------------------------------------------


 conjugate gradient relaxation of ions
 charge density and potential remain constant during run
 non-spin polarized calculation
 Variant of blocked Davidson
 Davidson routine will perform the subspace rotation
 perform sub-space diagonalisation
    after iterative eigenvector-optimisation
 no mixing
 using additional bands           16
 reciprocal scheme for non local part
 use partial core corrections
 calculate Harris-corrections to forces 
   (improved forces if not selfconsistent)
 use gradient corrections 
 WARNING: stress and forces are not correct
  (second derivative of E(xc) not defined)
 use of overlap-Matrix (Vanderbilt PP)
 Fermi-smearing in eV        SIGMA  =   0.00


--------------------------------------------------------------------------------------------------------


  energy-cutoff  :      400.00
  volume of cell :       40.03
      direct lattice vectors                 reciprocal lattice vectors
     0.000000000  2.715000000  2.715000000    -0.184162063  0.184162063  0.184162063
     2.715000000  0.000000000  2.715000000     0.184162063 -0.184162063  0.184162063
     2.715000000  2.715000000  0.000000000     0.184162063  0.184162063 -0.184162063

  length of vectors
     3.839589822  3.839589822  3.839589822     0.318978049  0.318978049  0.318978049


 
 old parameters found on file WAVECAR:
  energy-cutoff  :      400.00
  volume of cell :       40.03
      direct lattice vectors                 reciprocal lattice vectors
     0.000000000  2.715000000  2.715000000    -0.184162063  0.184162063  0.184162063
     2.715000000  0.000000000  2.715000000     0.184162063 -0.184162063  0.184162063
     2.715000000  2.715000000  0.000000000     0.184162063  0.184162063 -0.184162063

  length of vectors

 
 k-points in units of 2pi/SCALE and weight: k-points along high symmetry lines      
   0.00000000  0.00000000  0.00000000       0.004
   0.00000000  0.00000000  0.02040816       0.004
   0.00000000  0.00000000  0.04081633       0.004
   0.00000000  0.00000000  0.06122449       0.004
   0.00000000  0.00000000  0.08163265       0.004
   0.00000000  0.00000000  0.10204082       0.004
   0.00000000  0.00000000  0.12244898       0.004
   0.00000000  0.00000000  0.14285714       0.004
   0.00000000  0.00000000  0.16326531       0.004
   0.00000000  0.00000000  0.18367347       0.004
   0.00000000  0.00000000  0.20408163       0.004
   0.00000000  0.00000000  0.22448980       0.004
   0.00000000  0.00000000  0.24489796       0.004
   0.00000000  0.00000000  0.26530612       0.004
   0.00000000  0.00000000  0.28571429       0.004
   0.00000000  0.00000000  0.30612245       0.004
   0.00000000  0.00000000  0.32653061       0.004
   0.00000000  0.00000000  0.34693878       0.004
   0.00000000  0.00000000  0.36734694       0.004
   0.00000000  0.00000000  0.38775510       0.004
   0.00000000  0.00000000  0.40816327       0.004
   0.00000000  0.00000000  0.42857143       0.004
   0.00000000  0.00000000  0.44897959       0.004
   0.00000000  0.00000000  0.46938776       0.004
   0.00000000  0.00000000  0.48979592       0.004
   0.00000000  0.00000000  0.51020408       0.004
   0.00000000  0.00000000  0.53061224       0.004
   0.00000000  0.00000000  0.55102041       0.004
   0.00000000  0.00000000  0.57142857       0.004
   0.00000000  0.00000000  0.59183673       0.004
   0.00000000  0.00000000  0.61224490       0.004
   0.00000000  0.00000000  0.63265306       0.004
   0.00000000  0.00000000  0.65306122       0.004
   0.00000000  0.00000000  0.67346939       0.004
   0.00000000  0.00000000  0.69387755       0.004
   0.00000000  0.00000000  0.71428571       0.004
   0.00000000  0.00000000  0.73469388       0.004
   0.00000000  0.00000000  0.75510204       0.004
   0.00000000  0.00000000  0.77551020       0.004
   0.00000000  0.00000000  0.79591837       0.004
   0.00000000  0.00000000  0.81632653       0.004
   0.00000000  0.00000000  0.83673469       0.004
   0.00000000  0.00000000  0.85714286       0.004
   0.00000000  0.00000000  0.87755102       0.004
   0.00000000  0.00000000  0.89795918       0.004
   0.00000000  0.00000000  0.91836735       0.004
   0.00000000  0.00000000  0.93877551       0.004
   0.00000000  0.00000000  0.95918367       0.004
   0.00000000  0.00000000  0.97959184       0.004
   0.00000000  0.00000000  1.00000000       0.004
   0.00000000  0.00000000  1.00000000       0.004
   0.01020408  0.00000000  1.00000000       0.004
   0.02040816  0.00000000  1.00000000       0.004
   0.03061224  0.00000000  1.00000000       0.004
   0.04081633  0.00000000  1.00000000       0.004
   0.05102041  0.00000000  1.00000000       0.004
   0.06122449 -0.00000000  1.00000000       0.004
   0.07142857  0.00000000  1.00000000       0.004
   0.08163265 -0.00000000  1.00000000       0.004
   0.09183673 -0.00000000  1.00000000       0.004
   0.10204082  0.00000000  1.00000000       0.004
   0.11224490 -0.00000000  1.00000000       0.004
   0.12244898  0.00000000  1.00000000       0.004
   0.13265306 -0.00000000  1.00000000       0.004
   0.14285714  0.00000000  1.00000000       0.004
   0.15306122 -0.00000000  1.00000000       0.004
   0.16326531  0.00000000  1.00000000       0.004
   0.17346939 -0.00000000  1.00000000       0.004
   0.18367347  0.00000000  1.00000000       0.004
   0.19387755  0.00000000  1.00000000       0.004
   0.20408163  0.00000000  1.00000000       0.004
   0.21428571  0.00000000  1.00000000       0.004
   0.22448980  0.00000000  1.00000000       0.004
   0.23469388  0.00000000  1.00000000       0.004
   0.24489796 -0.00000000  1.00000000       0.004
   0.25510204  0.00000000  1.00000000       0.004
   0.26530612 -0.00000000  1.00000000       0.004
   0.27551020 -0.00000000  1.00000000       0.004
   0.28571429  0.00000000  1.00000000       0.004
   0.29591837 -0.00000000  1.00000000       0.004
   0.30612245  0.00000000  1.00000000       0.004
   0.31632653 -0.00000000  1.00000000       0.004
   0.32653061  0.00000000  1.00000000       0.004
   0.33673469 -0.00000000  1.00000000       0.004
   0.34693878  0.00000000  1.00000000       0.004
   0.35714286 -0.00000000  1.00000000       0.004
   0.36734694  0.00000000  1.00000000       0.004
   0.37755102  0.00000000  1.00000000       0.004
   0.38775510 -0.00000000  1.00000000       0.004
   0.39795918 -0.00000000  1.00000000       0.004
   0.40816327  0.00000000  1.00000000       0.004
   0.41836735  0.00000000  1.00000000       0.004
   0.42857143 -0.00000000  1.00000000       0.004
   0.43877551  0.00000000  1.00000000       0.004
   0.44897959  0.00000000  1.00000000       0.004
   0.45918367  0.00000000  1.00000000       0.004
   0.46938776  0.00000000  1.00000000       0.004
   0.47959184  0.00000000  1.00000000       0.004
   0.48979592 -0.00000000  1.00000000       0.004
   0.50000000 -0.00000000  1.00000000       0.004
   0.50000000 -0.00000000  1.00000000       0.004
   0.50000000  0.01020408  0.98979592       0.004
   0.50000000  0.02040816  0.97959184       0.004
   0.50000000  0.03061224  0.96938776       0.004
   0.50000000  0.04081633  0.95918367       0.004
   0.50000000  0.05102041  0.94897959       0.004
   0.50000000  0.06122449  0.93877551       0.004
   0.50000000  0.07142857  0.92857143       0.004
   0.50000000  0.08163265  0.91836735       0.004
   0.50000000  0.09183673  0.90816327       0.004
   0.50000000  0.10204082  0.89795918       0.004
   0.50000000  0.11224490  0.88775510       0.004
   0.50000000  0.12244898  0.87755102       0.004
   0.50000000  0.13265306  0.86734694       0.004
   0.50000000  0.14285714  0.85714286       0.004
   0.50000000  0.15306122  0.84693878       0.004
   0.50000000  0.16326531  0.83673469       0.004
   0.50000000  0.17346939  0.82653061       0.004
   0.50000000  0.18367347  0.81632653       0.004
   0.50000000  0.19387755  0.80612245       0.004
   0.50000000  0.20408163  0.79591837       0.004
   0.50000000  0.21428571  0.78571429       0.004
   0.50000000  0.22448980  0.77551020       0.004
   0.50000000  0.23469388  0.76530612       0.004
   0.50000000  0.24489796  0.75510204       0.004
   0.50000000  0.25510204  0.74489796       0.004
   0.50000000  0.26530612  0.73469388       0.004
   0.50000000  0.27551020  0.72448980       0.004
   0.50000000  0.28571429  0.71428571       0.004
   0.50000000  0.29591837  0.70408163       0.004
   0.50000000  0.30612245  0.69387755       0.004
   0.50000000  0.31632653  0.68367347       0.004
   0.50000000  0.32653061  0.67346939       0.004
   0.50000000  0.33673469  0.66326531       0.004
   0.50000000  0.34693878  0.65306122       0.004
   0.50000000  0.35714286  0.64285714       0.004
   0.50000000  0.36734694  0.63265306       0.004
   0.50000000  0.37755102  0.62244898       0.004
   0.50000000  0.38775510  0.61224490       0.004
   0.50000000  0.39795918  0.60204082       0.004
   0.50000000  0.40816327  0.59183673       0.004
   0.50000000  0.41836735  0.58163265       0.004
   0.50000000  0.42857143  0.57142857       0.004
   0.50000000  0.43877551  0.56122449       0.004
   0.50000000  0.44897959  0.55102041       0.004
   0.50000000  0.45918367  0.54081633       0.004
   0.50000000  0.46938776  0.53061224       0.004
   0.50000000  0.47959184  0.52040816       0.004
   0.50000000  0.48979592  0.51020408       0.004
   0.50000000  0.50000000  0.50000000       0.004
   0.50000000  0.50000000  0.50000000       0.004
   0.48979592  0.48979592  0.48979592       0.004
   0.47959184  0.47959184  0.47959184       0.004
   0.46938776  0.46938776  0.46938776       0.004
   0.45918367  0.45918367  0.45918367       0.004
   0.44897959  0.44897959  0.44897959       0.004
   0.43877551  0.43877551  0.43877551       0.004
   0.42857143  0.42857143  0.42857143       0.004
   0.41836735  0.41836735  0.41836735       0.004
   0.40816327  0.40816327  0.40816327       0.004
   0.39795918  0.39795918  0.39795918       0.004
   0.38775510  0.38775510  0.38775510       0.004
   0.37755102  0.37755102  0.37755102       0.004
   0.36734694  0.36734694  0.36734694       0.004
   0.35714286  0.35714286  0.35714286       0.004
   0.34693878  0.34693878  0.34693878       0.004
   0.33673469  0.33673469  0.33673469       0.004
   0.32653061  0.32653061  0.32653061       0.004
   0.31632653  0.31632653  0.31632653       0.004
   0.30612245  0.30612245  0.30612245       0.004
   0.29591837  0.29591837  0.29591837       0.004
   0.28571429  0.28571429  0.28571429       0.004
   0.27551020  0.27551020  0.27551020       0.004
   0.26530612  0.26530612  0.26530612       0.004
   0.25510204  0.25510204  0.25510204       0.004
   0.24489796  0.24489796  0.24489796       0.004
   0.23469388  0.23469388  0.23469388       0.004
   0.22448980  0.22448980  0.22448980       0.004
   0.21428571  0.21428571  0.21428571       0.004
   0.20408163  0.20408163  0.20408163       0.004
   0.19387755  0.19387755  0.19387755       0.004
   0.18367347  0.18367347  0.18367347       0.004
   0.17346939  0.17346939  0.17346939       0.004
   0.16326531  0.16326531  0.16326531       0.004
   0.15306122  0.15306122  0.15306122       0.004
   0.14285714  0.14285714  0.14285714       0.004
   0.13265306  0.13265306  0.13265306       0.004
   0.12244898  0.12244898  0.12244898       0.004
   0.11224490  0.11224490  0.11224490       0.004
   0.10204082  0.10204082  0.10204082       0.004
   0.09183673  0.09183673  0.09183673       0.004
   0.08163265  0.08163265  0.08163265       0.004
   0.07142857  0.07142857  0.07142857       0.004
   0.06122449  0.06122449  0.06122449       0.004
   0.05102041  0.05102041  0.05102041       0.004
   0.04081633  0.04081633  0.04081633       0.004
   0.03061224  0.03061224  0.03061224       0.004
   0.02040816  0.02040816  0.02040816       0.004
   0.01020408  0.01020408  0.01020408       0.004
   0.00000000  0.00000000  0.00000000       0.004
   0.00000000  0.00000000  0.00000000       0.004
   0.01530612  0.00000000  0.01530612       0.004
   0.03061224  0.00000000  0.03061224       0.004
   0.04591837  0.00000000  0.04591837       0.004
   0.06122449  0.00000000  0.06122449       0.004
   0.07653061  0.00000000  0.07653061       0.004
   0.09183673  0.00000000  0.09183673       0.004
   0.10714286  0.00000000  0.10714286       0.004
   0.12244898  0.00000000  0.12244898       0.004
   0.13775510  0.00000000  0.13775510       0.004
   0.15306122  0.00000000  0.15306122       0.004
   0.16836735  0.00000000  0.16836735       0.004
   0.18367347  0.00000000  0.18367347       0.004
   0.19897959  0.00000000  0.19897959       0.004
   0.21428571  0.00000000  0.21428571       0.004
   0.22959184  0.00000000  0.22959184       0.004
   0.24489796  0.00000000  0.24489796       0.004
   0.26020408  0.00000000  0.26020408       0.004
   0.27551020  0.00000000  0.27551020       0.004
   0.29081633  0.00000000  0.29081633       0.004
   0.30612245  0.00000000  0.30612245       0.004
   0.32142857  0.00000000  0.32142857       0.004
   0.33673469  0.00000000  0.33673469       0.004
   0.35204082  0.00000000  0.35204082       0.004
   0.36734694  0.00000000  0.36734694       0.004
   0.38265306  0.00000000  0.38265306       0.004
   0.39795918  0.00000000  0.39795918       0.004
   0.41326531  0.00000000  0.41326531       0.004
   0.42857143  0.00000000  0.42857143       0.004
   0.44387755  0.00000000  0.44387755       0.004
   0.45918367  0.00000000  0.45918367       0.004
   0.47448980  0.00000000  0.47448980       0.004
   0.48979592  0.00000000  0.48979592       0.004
   0.50510204  0.00000000  0.50510204       0.004
   0.52040816  0.00000000  0.52040816       0.004
   0.53571429  0.00000000  0.53571429       0.004
   0.55102041  0.00000000  0.55102041       0.004
   0.56632653  0.00000000  0.56632653       0.004
   0.58163265  0.00000000  0.58163265       0.004
   0.59693878  0.00000000  0.59693878       0.004
   0.61224490  0.00000000  0.61224490       0.004
   0.62755102  0.00000000  0.62755102       0.004
   0.64285714  0.00000000  0.64285714       0.004
   0.65816327  0.00000000  0.65816327       0.004
   0.67346939  0.00000000  0.67346939       0.004
   0.68877551  0.00000000  0.68877551       0.004
   0.70408163  0.00000000  0.70408163       0.004
   0.71938776  0.00000000  0.71938776       0.004
   0.73469388  0.00000000  0.73469388       0.004
   0.75000000  0.00000000  0.75000000       0.004
 
 k-points in reciprocal lattice and weights: k-points along high symmetry lines      
   0.00000000  0.00000000  0.00000000       0.004
   0.01020408  0.01020408  0.00000000       0.004
   0.02040816  0.02040816  0.00000000       0.004
   0.03061224  0.03061224  0.00000000       0.004
   0.04081633  0.04081633  0.00000000       0.004
   0.05102041  0.05102041  0.00000000       0.004
   0.06122449  0.06122449  0.00000000       0.004
   0.07142857  0.07142857  0.00000000       0.004
   0.08163265  0.08163265  0.00000000       0.004
   0.09183673  0.09183673  0.00000000       0.004
   0.10204082  0.10204082  0.00000000       0.004
   0.11224490  0.11224490  0.00000000       0.004
   0.12244898  0.12244898  0.00000000       0.004
   0.13265306  0.13265306  0.00000000       0.004
   0.14285714  0.14285714  0.00000000       0.004
   0.15306122  0.15306122  0.00000000       0.004
   0.16326531  0.16326531  0.00000000       0.004
   0.17346939  0.17346939  0.00000000       0.004
   0.18367347  0.18367347  0.00000000       0.004
   0.19387755  0.19387755  0.00000000       0.004
   0.20408163  0.20408163  0.00000000       0.004
   0.21428571  0.21428571  0.00000000       0.004
   0.22448980  0.22448980  0.00000000       0.004
   0.23469388  0.23469388  0.00000000       0.004
   0.24489796  0.24489796  0.00000000       0.004
   0.25510204  0.25510204  0.00000000       0.004
   0.26530612  0.26530612  0.00000000       0.004
   0.27551020  0.27551020  0.00000000       0.004
   0.28571429  0.28571429  0.00000000       0.004
   0.29591837  0.29591837  0.00000000       0.004
   0.30612245  0.30612245  0.00000000       0.004
   0.31632653  0.31632653  0.00000000       0.004
   0.32653061  0.32653061  0.00000000       0.004
   0.33673469  0.33673469  0.00000000       0.004
   0.34693878  0.34693878  0.00000000       0.004
   0.35714286  0.35714286  0.00000000       0.004
   0.36734694  0.36734694  0.00000000       0.004
   0.37755102  0.37755102  0.00000000       0.004
   0.38775510  0.38775510  0.00000000       0.004
   0.39795918  0.39795918  0.00000000       0.004
   0.40816327  0.40816327  0.00000000       0.004
   0.41836735  0.41836735  0.00000000       0.004
   0.42857143  0.42857143  0.00000000       0.004
   0.43877551  0.43877551  0.00000000       0.004
   0.44897959  0.44897959  0.00000000       0.004
   0.45918367  0.45918367  0.00000000       0.004
   0.46938776  0.46938776  0.00000000       0.004
   0.47959184  0.47959184  0.00000000       0.004
   0.48979592  0.48979592  0.00000000       0.004
   0.50000000  0.50000000  0.00000000       0.004
   0.50000000  0.50000000  0.00000000       0.004
   0.50000000  0.50510204  0.00510204       0.004
   0.50000000  0.51020408  0.01020408       0.004
   0.50000000  0.51530612  0.01530612       0.004
   0.50000000  0.52040816  0.02040816       0.004
   0.50000000  0.52551020  0.02551020       0.004
   0.50000000  0.53061224  0.03061224       0.004
   0.50000000  0.53571429  0.03571429       0.004
   0.50000000  0.54081633  0.04081633       0.004
   0.50000000  0.54591837  0.04591837       0.004
   0.50000000  0.55102041  0.05102041       0.004
   0.50000000  0.55612245  0.05612245       0.004
   0.50000000  0.56122449  0.06122449       0.004
   0.50000000  0.56632653  0.06632653       0.004
   0.50000000  0.57142857  0.07142857       0.004
   0.50000000  0.57653061  0.07653061       0.004
   0.50000000  0.58163265  0.08163265       0.004
   0.50000000  0.58673469  0.08673469       0.004
   0.50000000  0.59183673  0.09183673       0.004
   0.50000000  0.59693878  0.09693878       0.004
   0.50000000  0.60204082  0.10204082       0.004
   0.50000000  0.60714286  0.10714286       0.004
   0.50000000  0.61224490  0.11224490       0.004
   0.50000000  0.61734694  0.11734694       0.004
   0.50000000  0.62244898  0.12244898       0.004
   0.50000000  0.62755102  0.12755102       0.004
   0.50000000  0.63265306  0.13265306       0.004
   0.50000000  0.63775510  0.13775510       0.004
   0.50000000  0.64285714  0.14285714       0.004
   0.50000000  0.64795918  0.14795918       0.004
   0.50000000  0.65306122  0.15306122       0.004
   0.50000000  0.65816327  0.15816327       0.004
   0.50000000  0.66326531  0.16326531       0.004
   0.50000000  0.66836735  0.16836735       0.004
   0.50000000  0.67346939  0.17346939       0.004
   0.50000000  0.67857143  0.17857143       0.004
   0.50000000  0.68367347  0.18367347       0.004
   0.50000000  0.68877551  0.18877551       0.004
   0.50000000  0.69387755  0.19387755       0.004
   0.50000000  0.69897959  0.19897959       0.004
   0.50000000  0.70408163  0.20408163       0.004
   0.50000000  0.70918367  0.20918367       0.004
   0.50000000  0.71428571  0.21428571       0.004
   0.50000000  0.71938776  0.21938776       0.004
   0.50000000  0.72448980  0.22448980       0.004
   0.50000000  0.72959184  0.22959184       0.004
   0.50000000  0.73469388  0.23469388       0.004
   0.50000000  0.73979592  0.23979592       0.004
   0.50000000  0.74489796  0.24489796       0.004
   0.50000000  0.75000000  0.25000000       0.004
   0.50000000  0.75000000  0.25000000       0.004
   0.50000000  0.74489796  0.25510204       0.004
   0.50000000  0.73979592  0.26020408       0.004
   0.50000000  0.73469388  0.26530612       0.004
   0.50000000  0.72959184  0.27040816       0.004
   0.50000000  0.72448980  0.27551020       0.004
   0.50000000  0.71938776  0.28061224       0.004
   0.50000000  0.71428571  0.28571429       0.004
   0.50000000  0.70918367  0.29081633       0.004
   0.50000000  0.70408163  0.29591837       0.004
   0.50000000  0.69897959  0.30102041       0.004
   0.50000000  0.69387755  0.30612245       0.004
   0.50000000  0.68877551  0.31122449       0.004
   0.50000000  0.68367347  0.31632653       0.004
   0.50000000  0.67857143  0.32142857       0.004
   0.50000000  0.67346939  0.32653061       0.004
   0.50000000  0.66836735  0.33163265       0.004
   0.50000000  0.66326531  0.33673469       0.004
   0.50000000  0.65816327  0.34183673       0.004
   0.50000000  0.65306122  0.34693878       0.004
   0.50000000  0.64795918  0.35204082       0.004
   0.50000000  0.64285714  0.35714286       0.004
   0.50000000  0.63775510  0.36224490       0.004
   0.50000000  0.63265306  0.36734694       0.004
   0.50000000  0.62755102  0.37244898       0.004
   0.50000000  0.62244898  0.37755102       0.004
   0.50000000  0.61734694  0.38265306       0.004
   0.50000000  0.61224490  0.38775510       0.004
   0.50000000  0.60714286  0.39285714       0.004
   0.50000000  0.60204082  0.39795918       0.004
   0.50000000  0.59693878  0.40306122       0.004
   0.50000000  0.59183673  0.40816327       0.004
   0.50000000  0.58673469  0.41326531       0.004
   0.50000000  0.58163265  0.41836735       0.004
   0.50000000  0.57653061  0.42346939       0.004
   0.50000000  0.57142857  0.42857143       0.004
   0.50000000  0.56632653  0.43367347       0.004
   0.50000000  0.56122449  0.43877551       0.004
   0.50000000  0.55612245  0.44387755       0.004
   0.50000000  0.55102041  0.44897959       0.004
   0.50000000  0.54591837  0.45408163       0.004
   0.50000000  0.54081633  0.45918367       0.004
   0.50000000  0.53571429  0.46428571       0.004
   0.50000000  0.53061224  0.46938776       0.004
   0.50000000  0.52551020  0.47448980       0.004
   0.50000000  0.52040816  0.47959184       0.004
   0.50000000  0.51530612  0.48469388       0.004
   0.50000000  0.51020408  0.48979592       0.004
   0.50000000  0.50510204  0.49489796       0.004
   0.50000000  0.50000000  0.50000000       0.004
   0.50000000  0.50000000  0.50000000       0.004
   0.48979592  0.48979592  0.48979592       0.004
   0.47959184  0.47959184  0.47959184       0.004
   0.46938776  0.46938776  0.46938776       0.004
   0.45918367  0.45918367  0.45918367       0.004
   0.44897959  0.44897959  0.44897959       0.004
   0.43877551  0.43877551  0.43877551       0.004
   0.42857143  0.42857143  0.42857143       0.004
   0.41836735  0.41836735  0.41836735       0.004
   0.40816327  0.40816327  0.40816327       0.004
   0.39795918  0.39795918  0.39795918       0.004
   0.38775510  0.38775510  0.38775510       0.004
   0.37755102  0.37755102  0.37755102       0.004
   0.36734694  0.36734694  0.36734694       0.004
   0.35714286  0.35714286  0.35714286       0.004
   0.34693878  0.34693878  0.34693878       0.004
   0.33673469  0.33673469  0.33673469       0.004
   0.32653061  0.32653061  0.32653061       0.004
   0.31632653  0.31632653  0.31632653       0.004
   0.30612245  0.30612245  0.30612245       0.004
   0.29591837  0.29591837  0.29591837       0.004
   0.28571429  0.28571429  0.28571429       0.004
   0.27551020  0.27551020  0.27551020       0.004
   0.26530612  0.26530612  0.26530612       0.004
   0.25510204  0.25510204  0.25510204       0.004
   0.24489796  0.24489796  0.24489796       0.004
   0.23469388  0.23469388  0.23469388       0.004
   0.22448980  0.22448980  0.22448980       0.004
   0.21428571  0.21428571  0.21428571       0.004
   0.20408163  0.20408163  0.20408163       0.004
   0.19387755  0.19387755  0.19387755       0.004
   0.18367347  0.18367347  0.18367347       0.004
   0.17346939  0.17346939  0.17346939       0.004
   0.16326531  0.16326531  0.16326531       0.004
   0.15306122  0.15306122  0.15306122       0.004
   0.14285714  0.14285714  0.14285714       0.004
   0.13265306  0.13265306  0.13265306       0.004
   0.12244898  0.12244898  0.12244898       0.004
   0.11224490  0.11224490  0.11224490       0.004
   0.10204082  0.10204082  0.10204082       0.004
   0.09183673  0.09183673  0.09183673       0.004
   0.08163265  0.08163265  0.08163265       0.004
   0.07142857  0.07142857  0.07142857       0.004
   0.06122449  0.06122449  0.06122449       0.004
   0.05102041  0.05102041  0.05102041       0.004
   0.04081633  0.04081633  0.04081633       0.004
   0.03061224  0.03061224  0.03061224       0.004
   0.02040816  0.02040816  0.02040816       0.004
   0.01020408  0.01020408  0.01020408       0.004
   0.00000000  0.00000000  0.00000000       0.004
   0.00000000  0.00000000  0.00000000       0.004
   0.00765306  0.01530612  0.00765306       0.004
   0.01530612  0.03061224  0.01530612       0.004
   0.02295918  0.04591837  0.02295918       0.004
   0.03061224  0.06122449  0.03061224       0.004
   0.03826531  0.07653061  0.03826531       0.004
   0.04591837  0.09183673  0.04591837       0.004
   0.05357143  0.10714286  0.05357143       0.004
   0.06122449  0.12244898  0.06122449       0.004
   0.06887755  0.13775510  0.06887755       0.004
   0.07653061  0.15306122  0.07653061       0.004
   0.08418367  0.16836735  0.08418367       0.004
   0.09183673  0.18367347  0.09183673       0.004
   0.09948980  0.19897959  0.09948980       0.004
   0.10714286  0.21428571  0.10714286       0.004
   0.11479592  0.22959184  0.11479592       0.004
   0.12244898  0.24489796  0.12244898       0.004
   0.13010204  0.26020408  0.13010204       0.004
   0.13775510  0.27551020  0.13775510       0.004
   0.14540816  0.29081633  0.14540816       0.004
   0.15306122  0.30612245  0.15306122       0.004
   0.16071429  0.32142857  0.16071429       0.004
   0.16836735  0.33673469  0.16836735       0.004
   0.17602041  0.35204082  0.17602041       0.004
   0.18367347  0.36734694  0.18367347       0.004
   0.19132653  0.38265306  0.19132653       0.004
   0.19897959  0.39795918  0.19897959       0.004
   0.20663265  0.41326531  0.20663265       0.004
   0.21428571  0.42857143  0.21428571       0.004
   0.22193878  0.44387755  0.22193878       0.004
   0.22959184  0.45918367  0.22959184       0.004
   0.23724490  0.47448980  0.23724490       0.004
   0.24489796  0.48979592  0.24489796       0.004
   0.25255102  0.50510204  0.25255102       0.004
   0.26020408  0.52040816  0.26020408       0.004
   0.26785714  0.53571429  0.26785714       0.004
   0.27551020  0.55102041  0.27551020       0.004
   0.28316327  0.56632653  0.28316327       0.004
   0.29081633  0.58163265  0.29081633       0.004
   0.29846939  0.59693878  0.29846939       0.004
   0.30612245  0.61224490  0.30612245       0.004
   0.31377551  0.62755102  0.31377551       0.004
   0.32142857  0.64285714  0.32142857       0.004
   0.32908163  0.65816327  0.32908163       0.004
   0.33673469  0.67346939  0.33673469       0.004
   0.34438776  0.68877551  0.34438776       0.004
   0.35204082  0.70408163  0.35204082       0.004
   0.35969388  0.71938776  0.35969388       0.004
   0.36734694  0.73469388  0.36734694       0.004
   0.37500000  0.75000000  0.37500000       0.004
 
 position of ions in fractional coordinates (direct lattice) 
   0.87500000  0.87500000  0.87500000
   0.12500000  0.12500000  0.12500000
 
 position of ions in cartesian coordinates  (Angst):
   4.75125000  4.75125000  4.75125000
   0.67875000  0.67875000  0.67875000
 


--------------------------------------------------------------------------------------------------------


 k-point  1 :   0.0000 0.0000 0.0000  plane waves:     725
 k-point  2 :   0.0102 0.0102 0.0000  plane waves:     725
 k-point  3 :   0.0204 0.0204 0.0000  plane waves:     725
 k-point  4 :   0.0306 0.0306 0.0000  plane waves:     725
 k-point  5 :   0.0408 0.0408 0.0000  plane waves:     725
 k-point  6 :   0.0510 0.0510 0.0000  plane waves:     729
 k-point  7 :   0.0612 0.0612 0.0000  plane waves:     729
 k-point  8 :   0.0714 0.0714 0.0000  plane waves:     729
 k-point  9 :   0.0816 0.0816 0.0000  plane waves:     729
 k-point 10 :   0.0918 0.0918 0.0000  plane waves:     729
 k-point 11 :   0.1020 0.1020 0.0000  plane waves:     725
 k-point 12 :   0.1122 0.1122 0.0000  plane waves:     725
 k-point 13 :   0.1224 0.1224 0.0000  plane waves:     717
 k-point 14 :   0.1327 0.1327 0.0000  plane waves:     721
 k-point 15 :   0.1429 0.1429 0.0000  plane waves:     721
 k-point 16 :   0.1531 0.1531 0.0000  plane waves:     721
 k-point 17 :   0.1633 0.1633 0.0000  plane waves:     721
 k-point 18 :   0.1735 0.1735 0.0000  plane waves:     717
 k-point 19 :   0.1837 0.1837 0.0000  plane waves:     725
 k-point 20 :   0.1939 0.1939 0.0000  plane waves:     725
 k-point 21 :   0.2041 0.2041 0.0000  plane waves:     721
 k-point 22 :   0.2143 0.2143 0.0000  plane waves:     721
 k-point 23 :   0.2245 0.2245 0.0000  plane waves:     721
 k-point 24 :   0.2347 0.2347 0.0000  plane waves:     721
 k-point 25 :   0.2449 0.2449 0.0000  plane waves:     729
 k-point 26 :   0.2551 0.2551 0.0000  plane waves:     729
 k-point 27 :   0.2653 0.2653 0.0000  plane waves:     725
 k-point 28 :   0.2755 0.2755 0.0000  plane waves:     721
 k-point 29 :   0.2857 0.2857 0.0000  plane waves:     721
 k-point 30 :   0.2959 0.2959 0.0000  plane waves:     721
 k-point 31 :   0.3061 0.3061 0.0000  plane waves:     721
 k-point 32 :   0.3163 0.3163 0.0000  plane waves:     717
 k-point 33 :   0.3265 0.3265 0.0000  plane waves:     717
 k-point 34 :   0.3367 0.3367 0.0000  plane waves:     717
 k-point 35 :   0.3469 0.3469 0.0000  plane waves:     717
 k-point 36 :   0.3571 0.3571 0.0000  plane waves:     717
 k-point 37 :   0.3673 0.3673 0.0000  plane waves:     725
 k-point 38 :   0.3776 0.3776 0.0000  plane waves:     725
 k-point 39 :   0.3878 0.3878 0.0000  plane waves:     729
 k-point 40 :   0.3980 0.3980 0.0000  plane waves:     729
 k-point 41 :   0.4082 0.4082 0.0000  plane waves:     725
 k-point 42 :   0.4184 0.4184 0.0000  plane waves:     725
 k-point 43 :   0.4286 0.4286 0.0000  plane waves:     724
 k-point 44 :   0.4388 0.4388 0.0000  plane waves:     732
 k-point 45 :   0.4490 0.4490 0.0000  plane waves:     732
 k-point 46 :   0.4592 0.4592 0.0000  plane waves:     740
 k-point 47 :   0.4694 0.4694 0.0000  plane waves:     740
 k-point 48 :   0.4796 0.4796 0.0000  plane waves:     740
 k-point 49 :   0.4898 0.4898 0.0000  plane waves:     740
 k-point 50 :   0.5000 0.5000 0.0000  plane waves:     740
 k-point 51 :   0.5000 0.5000 0.0000  plane waves:     740
 k-point 52 :   0.5000 0.5051 0.0051  plane waves:     740
 k-point 53 :   0.5000 0.5102 0.0102  plane waves:     740
 k-point 54 :   0.5000 0.5153 0.0153  plane waves:     736
 k-point 55 :   0.5000 0.5204 0.0204  plane waves:     736
 k-point 56 :   0.5000 0.5255 0.0255  plane waves:     732
 k-point 57 :   0.5000 0.5306 0.0306  plane waves:     732
 k-point 58 :   0.5000 0.5357 0.0357  plane waves:     732
 k-point 59 :   0.5000 0.5408 0.0408  plane waves:     732
 k-point 60 :   0.5000 0.5459 0.0459  plane waves:     728
 k-point 61 :   0.5000 0.5510 0.0510  plane waves:     728
 k-point 62 :   0.5000 0.5561 0.0561  plane waves:     728
 k-point 63 :   0.5000 0.5612 0.0612  plane waves:     724
 k-point 64 :   0.5000 0.5663 0.0663  plane waves:     724
 k-point 65 :   0.5000 0.5714 0.0714  plane waves:     724
 k-point 66 :   0.5000 0.5765 0.0765  plane waves:     724
 k-point 67 :   0.5000 0.5816 0.0816  plane waves:     724
 k-point 68 :   0.5000 0.5867 0.0867  plane waves:     724
 k-point 69 :   0.5000 0.5918 0.0918  plane waves:     724
 k-point 70 :   0.5000 0.5969 0.0969  plane waves:     724
 k-point 71 :   0.5000 0.6020 0.1020  plane waves:     726
 k-point 72 :   0.5000 0.6071 0.1071  plane waves:     726
 k-point 73 :   0.5000 0.6122 0.1122  plane waves:     730
 k-point 74 :   0.5000 0.6173 0.1173  plane waves:     730
 k-point 75 :   0.5000 0.6224 0.1224  plane waves:     730
 k-point 76 :   0.5000 0.6276 0.1276  plane waves:     730
 k-point 77 :   0.5000 0.6327 0.1327  plane waves:     730
 k-point 78 :   0.5000 0.6378 0.1378  plane waves:     730
 k-point 79 :   0.5000 0.6429 0.1429  plane waves:     730
 k-point 80 :   0.5000 0.6480 0.1480  plane waves:     730
 k-point 81 :   0.5000 0.6531 0.1531  plane waves:     730
 k-point 82 :   0.5000 0.6582 0.1582  plane waves:     724
 k-point 83 :   0.5000 0.6633 0.1633  plane waves:     720
 k-point 84 :   0.5000 0.6684 0.1684  plane waves:     718
 k-point 85 :   0.5000 0.6735 0.1735  plane waves:     726
 k-point 86 :   0.5000 0.6786 0.1786  plane waves:     726
 k-point 87 :   0.5000 0.6837 0.1837  plane waves:     726
 k-point 88 :   0.5000 0.6888 0.1888  plane waves:     726
 k-point 89 :   0.5000 0.6939 0.1939  plane waves:     726
 k-point 90 :   0.5000 0.6990 0.1990  plane waves:     726
 k-point 91 :   0.5000 0.7041 0.2041  plane waves:     726
 k-point 92 :   0.5000 0.7092 0.2092  plane waves:     726
 k-point 93 :   0.5000 0.7143 0.2143  plane waves:     724
 k-point 94 :   0.5000 0.7194 0.2194  plane waves:     724
 k-point 95 :   0.5000 0.7245 0.2245  plane waves:     724
 k-point 96 :   0.5000 0.7296 0.2296  plane waves:     724
 k-point 97 :   0.5000 0.7347 0.2347  plane waves:     724
 k-point 98 :   0.5000 0.7398 0.2398  plane waves:     724
 k-point 99 :   0.5000 0.7449 0.2449  plane waves:     724
 k-point ** :   0.5000 0.7500 0.2500  plane waves:     724
 k-point ** :   0.5000 0.7500 0.2500  plane waves:     724
 k-point ** :   0.5000 0.7449 0.2551  plane waves:     724
 k-point ** :   0.5000 0.7398 0.2602  plane waves:     724
 k-point ** :   0.5000 0.7347 0.2653  plane waves:     724
 k-point ** :   0.5000 0.7296 0.2704  plane waves:     726
 k-point ** :   0.5000 0.7245 0.2755  plane waves:     726
 k-point ** :   0.5000 0.7194 0.2806  plane waves:     728
 k-point ** :   0.5000 0.7143 0.2857  plane waves:     726
 k-point ** :   0.5000 0.7092 0.2908  plane waves:     726
 k-point ** :   0.5000 0.7041 0.2959  plane waves:     728
 k-point ** :   0.5000 0.6990 0.3010  plane waves:     728
 k-point ** :   0.5000 0.6939 0.3061  plane waves:     728
 k-point ** :   0.5000 0.6888 0.3112  plane waves:     728
 k-point ** :   0.5000 0.6837 0.3163  plane waves:     730
 k-point ** :   0.5000 0.6786 0.3214  plane waves:     728
 k-point ** :   0.5000 0.6735 0.3265  plane waves:     728
 k-point ** :   0.5000 0.6684 0.3316  plane waves:     730
 k-point ** :   0.5000 0.6633 0.3367  plane waves:     728
 k-point ** :   0.5000 0.6582 0.3418  plane waves:     724
 k-point ** :   0.5000 0.6531 0.3469  plane waves:     724
 k-point ** :   0.5000 0.6480 0.3520  plane waves:     724
 k-point ** :   0.5000 0.6429 0.3571  plane waves:     726
 k-point ** :   0.5000 0.6378 0.3622  plane waves:     726
 k-point ** :   0.5000 0.6327 0.3673  plane waves:     722
 k-point ** :   0.5000 0.6276 0.3724  plane waves:     722
 k-point ** :   0.5000 0.6224 0.3776  plane waves:     722
 k-point ** :   0.5000 0.6173 0.3827  plane waves:     722
 k-point ** :   0.5000 0.6122 0.3878  plane waves:     724
 k-point ** :   0.5000 0.6071 0.3929  plane waves:     728
 k-point ** :   0.5000 0.6020 0.3980  plane waves:     728
 k-point ** :   0.5000 0.5969 0.4031  plane waves:     728
 k-point ** :   0.5000 0.5918 0.4082  plane waves:     728
 k-point ** :   0.5000 0.5867 0.4133  plane waves:     732
 k-point ** :   0.5000 0.5816 0.4184  plane waves:     732
 k-point ** :   0.5000 0.5765 0.4235  plane waves:     732
 k-point ** :   0.5000 0.5714 0.4286  plane waves:     734
 k-point ** :   0.5000 0.5663 0.4337  plane waves:     734
 k-point ** :   0.5000 0.5612 0.4388  plane waves:     734
 k-point ** :   0.5000 0.5561 0.4439  plane waves:     730
 k-point ** :   0.5000 0.5510 0.4490  plane waves:     732
 k-point ** :   0.5000 0.5459 0.4541  plane waves:     732
 k-point ** :   0.5000 0.5408 0.4592  plane waves:     732
 k-point ** :   0.5000 0.5357 0.4643  plane waves:     732
 k-point ** :   0.5000 0.5306 0.4694  plane waves:     734
 k-point ** :   0.5000 0.5255 0.4745  plane waves:     734
 k-point ** :   0.5000 0.5204 0.4796  plane waves:     732
 k-point ** :   0.5000 0.5153 0.4847  plane waves:     732
 k-point ** :   0.5000 0.5102 0.4898  plane waves:     722
 k-point ** :   0.5000 0.5051 0.4949  plane waves:     718
 k-point ** :   0.5000 0.5000 0.5000  plane waves:     718
 k-point ** :   0.5000 0.5000 0.5000  plane waves:     718
 k-point ** :   0.4898 0.4898 0.4898  plane waves:     718
 k-point ** :   0.4796 0.4796 0.4796  plane waves:     724
 k-point ** :   0.4694 0.4694 0.4694  plane waves:     724
 k-point ** :   0.4592 0.4592 0.4592  plane waves:     730
 k-point ** :   0.4490 0.4490 0.4490  plane waves:     736
 k-point ** :   0.4388 0.4388 0.4388  plane waves:     736
 k-point ** :   0.4286 0.4286 0.4286  plane waves:     736
 k-point ** :   0.4184 0.4184 0.4184  plane waves:     739
 k-point ** :   0.4082 0.4082 0.4082  plane waves:     739
 k-point ** :   0.3980 0.3980 0.3980  plane waves:     739
 k-point ** :   0.3878 0.3878 0.3878  plane waves:     739
 k-point ** :   0.3776 0.3776 0.3776  plane waves:     739
 k-point ** :   0.3673 0.3673 0.3673  plane waves:     745
 k-point ** :   0.3571 0.3571 0.3571  plane waves:     748
 k-point ** :   0.3469 0.3469 0.3469  plane waves:     745
 k-point ** :   0.3367 0.3367 0.3367  plane waves:     745
 k-point ** :   0.3265 0.3265 0.3265  plane waves:     745
 k-point ** :   0.3163 0.3163 0.3163  plane waves:     745
 k-point ** :   0.3061 0.3061 0.3061  plane waves:     745
 k-point ** :   0.2959 0.2959 0.2959  plane waves:     745
 k-point ** :   0.2857 0.2857 0.2857  plane waves:     739
 k-point ** :   0.2755 0.2755 0.2755  plane waves:     739
 k-point ** :   0.2653 0.2653 0.2653  plane waves:     727
 k-point ** :   0.2551 0.2551 0.2551  plane waves:     733
 k-point ** :   0.2449 0.2449 0.2449  plane waves:     733
 k-point ** :   0.2347 0.2347 0.2347  plane waves:     733
 k-point ** :   0.2245 0.2245 0.2245  plane waves:     733
 k-point ** :   0.2143 0.2143 0.2143  plane waves:     724
 k-point ** :   0.2041 0.2041 0.2041  plane waves:     718
 k-point ** :   0.1939 0.1939 0.1939  plane waves:     718
 k-point ** :   0.1837 0.1837 0.1837  plane waves:     718
 k-point ** :   0.1735 0.1735 0.1735  plane waves:     718
 k-point ** :   0.1633 0.1633 0.1633  plane waves:     718
 k-point ** :   0.1531 0.1531 0.1531  plane waves:     712
 k-point ** :   0.1429 0.1429 0.1429  plane waves:     718
 k-point ** :   0.1327 0.1327 0.1327  plane waves:     718
 k-point ** :   0.1224 0.1224 0.1224  plane waves:     724
 k-point ** :   0.1122 0.1122 0.1122  plane waves:     728
 k-point ** :   0.1020 0.1020 0.1020  plane waves:     728
 k-point ** :   0.0918 0.0918 0.0918  plane waves:     728
 k-point ** :   0.0816 0.0816 0.0816  plane waves:     731
 k-point ** :   0.0714 0.0714 0.0714  plane waves:     731
 k-point ** :   0.0612 0.0612 0.0612  plane waves:     725
 k-point ** :   0.0510 0.0510 0.0510  plane waves:     725
 k-point ** :   0.0408 0.0408 0.0408  plane waves:     725
 k-point ** :   0.0306 0.0306 0.0306  plane waves:     725
 k-point ** :   0.0204 0.0204 0.0204  plane waves:     725
 k-point ** :   0.0102 0.0102 0.0102  plane waves:     725
 k-point ** :   0.0000 0.0000 0.0000  plane waves:     725
 k-point ** :   0.0000 0.0000 0.0000  plane waves:     725
 k-point ** :   0.0077 0.0153 0.0077  plane waves:     725
 k-point ** :   0.0153 0.0306 0.0153  plane waves:     725
 k-point ** :   0.0230 0.0459 0.0230  plane waves:     725
 k-point ** :   0.0306 0.0612 0.0306  plane waves:     725
 k-point ** :   0.0383 0.0765 0.0383  plane waves:     727
 k-point ** :   0.0459 0.0918 0.0459  plane waves:     727
 k-point ** :   0.0536 0.1071 0.0536  plane waves:     729
 k-point ** :   0.0612 0.1224 0.0612  plane waves:     729
 k-point ** :   0.0689 0.1378 0.0689  plane waves:     729
 k-point ** :   0.0765 0.1531 0.0765  plane waves:     721
 k-point ** :   0.0842 0.1684 0.0842  plane waves:     719
 k-point ** :   0.0918 0.1837 0.0918  plane waves:     719
 k-point ** :   0.0995 0.1990 0.0995  plane waves:     723
 k-point ** :   0.1071 0.2143 0.1071  plane waves:     725
 k-point ** :   0.1148 0.2296 0.1148  plane waves:     725
 k-point ** :   0.1224 0.2449 0.1224  plane waves:     737
 k-point ** :   0.1301 0.2602 0.1301  plane waves:     737
 k-point ** :   0.1378 0.2755 0.1378  plane waves:     728
 k-point ** :   0.1454 0.2908 0.1454  plane waves:     728
 k-point ** :   0.1531 0.3061 0.1531  plane waves:     736
 k-point ** :   0.1607 0.3214 0.1607  plane waves:     732
 k-point ** :   0.1684 0.3367 0.1684  plane waves:     732
 k-point ** :   0.1760 0.3520 0.1760  plane waves:     732
 k-point ** :   0.1837 0.3673 0.1837  plane waves:     732
 k-point ** :   0.1913 0.3827 0.1913  plane waves:     732
 k-point ** :   0.1990 0.3980 0.1990  plane waves:     728
 k-point ** :   0.2066 0.4133 0.2066  plane waves:     728
 k-point ** :   0.2143 0.4286 0.2143  plane waves:     730
 k-point ** :   0.2219 0.4439 0.2219  plane waves:     730
 k-point ** :   0.2296 0.4592 0.2296  plane waves:     730
 k-point ** :   0.2372 0.4745 0.2372  plane waves:     730
 k-point ** :   0.2449 0.4898 0.2449  plane waves:     730
 k-point ** :   0.2526 0.5051 0.2526  plane waves:     720
 k-point ** :   0.2602 0.5204 0.2602  plane waves:     728
 k-point ** :   0.2679 0.5357 0.2679  plane waves:     728
 k-point ** :   0.2755 0.5510 0.2755  plane waves:     728
 k-point ** :   0.2832 0.5663 0.2832  plane waves:     728
 k-point ** :   0.2908 0.5816 0.2908  plane waves:     728
 k-point ** :   0.2985 0.5969 0.2985  plane waves:     728
 k-point ** :   0.3061 0.6122 0.3061  plane waves:     722
 k-point ** :   0.3138 0.6276 0.3138  plane waves:     722
 k-point ** :   0.3214 0.6429 0.3214  plane waves:     722
 k-point ** :   0.3291 0.6582 0.3291  plane waves:     718
 k-point ** :   0.3367 0.6735 0.3367  plane waves:     718
 k-point ** :   0.3444 0.6888 0.3444  plane waves:     720
 k-point ** :   0.3520 0.7041 0.3520  plane waves:     724
 k-point ** :   0.3597 0.7194 0.3597  plane waves:     724
 k-point ** :   0.3673 0.7347 0.3673  plane waves:     724
 k-point ** :   0.3750 0.7500 0.3750  plane waves:     724

 maximum number of plane-waves:       748
 maximum index in each direction: 
   IXMAX=    6   IYMAX=    6   IZMAX=    6
   IXMIN=   -6   IYMIN=   -6   IZMIN=   -6

 NGX is ok and might be reduce to  26
 NGY is ok and might be reduce to  26
 NGZ is ok and might be reduce to  26

 total amount of memory used by VASP on root node   112637. kBytes
========================================================================

   base      :      30000. kBytes
   nonl-proj :      11991. kBytes
   grid      :       9520. kBytes
   one-center:          6. kBytes
   wavefun   :      61120. kBytes
 
 For storing wavefunctions   58.20 MBYTES are necessary
 For predicting wavefunctions    1.99 MBYTES are necessary
 initial charge density was supplied:
 number of electron       8.0000001 magnetization 
 keeping initial charge density in first step


--------------------------------------------------------------------------------------------------------


 Maximum index for augmentation-charges        17861 (set IRDMAX)


--------------------------------------------------------------------------------------------------------


 First call to EWALD:  gamma=   0.518
 Maximum number of real-space cells 3x 3x 3
 Maximum number of reciprocal cells 3x 3x 3

    FEWALD:  cpu time    0.00: real time    0.00


----------------------------------------- Iteration    1(   1)  ---------------------------------------


    POTLOK:  cpu time    0.12: real time    0.12
    SETDIJ:  cpu time    0.01: real time    0.01
     EDDAV:  cpu time   35.44: real time   35.47
       DOS:  cpu time    0.00: real time    0.00
    --------------------------------------------
      LOOP:  cpu time   35.57: real time   35.59

 eigenvalue-minimisations  : 16152
 total energy-change (2. order) :-0.6844521E+01  (-0.1252224E+02)
 number of electron       8.0000001 magnetization 
 augmentation part        8.0000001 magnetization 

 Free energy of the ion-electron system (eV)
  ---------------------------------------------------
  alpha Z        PSCENC =         3.36414203
  Ewald energy   TEWEN  =      -228.56352493
  -1/2 Hartree   DENC   =       -14.91803666
  -exchange  EXHF       =         0.00000000
  -V(xc)+E(xc)   XCENC  =       -17.96141178
  PAW double counting   =        74.32020755      -39.35852389
  entropy T*S    EENTRO =        -0.00000079
  eigenvalues    EBANDS =        10.14113500
  atomic energy  EATOM  =       206.13149246
  ---------------------------------------------------
  free energy    TOTEN  =        -6.84452102 eV

  energy without entropy =       -6.84452023  energy(sigma->0) =       -6.84452063


--------------------------------------------------------------------------------------------------------




----------------------------------------- Iteration    1(   2)  ---------------------------------------


     EDDAV:  cpu time   28.44: real time   28.46
       DOS:  cpu time    0.00: real time    0.00
    --------------------------------------------
      LOOP:  cpu time   28.44: real time   28.47

 eigenvalue-minimisations  : 12100
 total energy-change (2. order) :-0.1457328E+01  (-0.1418715E+01)
 number of electron       8.0000001 magnetization 
 augmentation part        8.0000001 magnetization 

 Free energy of the ion-electron system (eV)
  ---------------------------------------------------
  alpha Z        PSCENC =         3.36414203
  Ewald energy   TEWEN  =      -228.56352493
  -1/2 Hartree   DENC   =       -14.91803666
  -exchange  EXHF       =         0.00000000
  -V(xc)+E(xc)   XCENC  =       -17.96141178
  PAW double counting   =        74.32020755      -39.35852389
  entropy T*S    EENTRO =         0.00000000
  eigenvalues    EBANDS =         8.68380582
  atomic energy  EATOM  =       206.13149246
  ---------------------------------------------------
  free energy    TOTEN  =        -8.30184940 eV

  energy without entropy =       -8.30184940  energy(sigma->0) =       -8.30184940


--------------------------------------------------------------------------------------------------------




----------------------------------------- Iteration    1(   3)  ---------------------------------------


     EDDAV:  cpu time   28.61: real time   28.66
       DOS:  cpu time    0.00: real time    0.00
    --------------------------------------------
      LOOP:  cpu time   28.61: real time   28.66

 eigenvalue-minimisations  : 12216
 total energy-change (2. order) :-0.9407777E-02  (-0.9404030E-02)
 number of electron       8.0000001 magnetization 
 augmentation part        8.0000001 magnetization 

 Free energy of the ion-electron system (eV)
  ---------------------------------------------------
  alpha Z        PSCENC =         3.36414203
  Ewald energy   TEWEN  =      -228.56352493
  -1/2 Hartree   DENC   =       -14.91803666
  -exchange  EXHF       =         0.00000000
  -V(xc)+E(xc)   XCENC  =       -17.96141178
  PAW double counting   =        74.32020755      -39.35852389
  entropy T*S    EENTRO =         0.00000000
  eigenvalues    EBANDS =         8.67439805
  atomic energy  EATOM  =       206.13149246
  ---------------------------------------------------
  free energy    TOTEN  =        -8.31125718 eV

  energy without entropy =       -8.31125718  energy(sigma->0) =       -8.31125718


--------------------------------------------------------------------------------------------------------




----------------------------------------- Iteration    1(   4)  ---------------------------------------


     EDDAV:  cpu time   28.49: real time   28.53
       DOS:  cpu time    0.00: real time    0.00
    --------------------------------------------
      LOOP:  cpu time   28.49: real time   28.53

 eigenvalue-minimisations  : 12100
 total energy-change (2. order) :-0.3599015E-04  (-0.3598937E-04)
 number of electron       8.0000001 magnetization 
 augmentation part        8.0000001 magnetization 

 Free energy of the ion-electron system (eV)
  ---------------------------------------------------
  alpha Z        PSCENC =         3.36414203
  Ewald energy   TEWEN  =      -228.56352493
  -1/2 Hartree   DENC   =       -14.91803666
  -exchange  EXHF       =         0.00000000
  -V(xc)+E(xc)   XCENC  =       -17.96141178
  PAW double counting   =        74.32020755      -39.35852389
  entropy T*S    EENTRO =         0.00000000
[...]
     10      14.4297      0.00000
     11      18.9597      0.00000
     12      19.6191      0.00000
     13      20.2510      0.00000
     14      22.5495      0.00000
     15      22.8385      0.00000
     16      23.4847      0.00000
     17      23.9317      0.00000
     18      26.6163      0.00000
     19      28.6307      0.00000
     20      28.8423      0.00000

 k-point 238 :       0.2832    0.5663    0.2832
  band No.  band energies     occupation 
      1      -3.5881      2.00000
      2      -0.2202      2.00000
      3       1.7055      2.00000
      4       4.1765      2.00000
      5       7.9223      0.00000
      6      11.2430      0.00000
      7      11.5753      0.00000
      8      12.4260      0.00000
      9      12.6747      0.00000
     10      14.1028      0.00000
     11      19.1157      0.00000
     12      19.7480      0.00000
     13      20.6171      0.00000
     14      22.4292      0.00000
     15      22.7115      0.00000
     16      23.7447      0.00000
     17      23.7542      0.00000
     18      26.4574      0.00000
     19      28.6126      0.00000
     20      28.9453      0.00000

 k-point 239 :       0.2908    0.5816    0.2908
  band No.  band energies     occupation 
      1      -3.4729      2.00000
      2      -0.3413      2.00000
      3       1.6376      2.00000
      4       4.1029      2.00000
      5       7.8387      0.00000
      6      11.3961      0.00000
      7      11.7169      0.00000
      8      12.5431      0.00000
      9      12.7842      0.00000
     10      13.7777      0.00000
     11      19.2751      0.00000
     12      19.8870      0.00000
     13      20.9736      0.00000
     14      22.3035      0.00000
     15      22.5979      0.00000
     16      23.5560      0.00000
     17      24.0015      0.00000
     18      26.2936      0.00000
     19      28.4119      0.00000
     20      29.2167      0.00000

 k-point 240 :       0.2985    0.5969    0.2985
  band No.  band energies     occupation 
      1      -3.3585      2.00000
      2      -0.4583      2.00000
      3       1.5775      2.00000
      4       4.0304      2.00000
      5       7.7559      0.00000
      6      11.5528      0.00000
      7      11.8515      0.00000
      8      12.6651      0.00000
      9      12.8998      0.00000
     10      13.4616      0.00000
     11      19.4377      0.00000
     12      20.0345      0.00000
     13      21.3048      0.00000
     14      22.1735      0.00000
     15      22.5130      0.00000
     16      23.3653      0.00000
     17      24.2149      0.00000
     18      26.1316      0.00000
     19      28.2746      0.00000
     20      29.4189      0.00000

 k-point 241 :       0.3061    0.6122    0.3061
  band No.  band energies     occupation 
      1      -3.2455      2.00000
      2      -0.5711      2.00000
      3       1.5259      2.00000
      4       3.9593      2.00000
      5       7.6743      0.00000
      6      11.7132      0.00000
      7      11.9665      0.00000
      8      12.7915      0.00000
      9      13.0215      0.00000
     10      13.1686      0.00000
     11      19.6036      0.00000
     12      20.1894      0.00000
     13      21.5709      0.00000
     14      22.0403      0.00000
     15      22.4968      0.00000
     16      23.1724      0.00000
     17      24.3764      0.00000
     18      25.9844      0.00000
     19      28.1356      0.00000
     20      29.4328      0.00000

 k-point 242 :       0.3138    0.6276    0.3138
  band No.  band energies     occupation 
      1      -3.1345      2.00000
      2      -0.6797      2.00000
      3       1.4832      2.00000
      4       3.8897      2.00000
      5       7.5942      0.00000
      6      11.8770      0.00000
      7      12.0281      0.00000
      8      12.9219      0.00000
      9      12.9331      0.00000
     10      13.1486      0.00000
     11      19.7718      0.00000
     12      20.3506      0.00000
     13      21.7036      0.00000
     14      21.9038      0.00000
     15      22.6171      0.00000
     16      22.9770      0.00000
     17      24.4620      0.00000
     18      25.8710      0.00000
     19      28.0576      0.00000
     20      29.1537      0.00000

 k-point 243 :       0.3214    0.6429    0.3214
  band No.  band energies     occupation 
      1      -3.0263      2.00000
      2      -0.7840      2.00000
      3       1.4500      2.00000
      4       3.8219      2.00000
      5       7.5158      0.00000
      6      11.9709      0.00000
      7      12.0444      0.00000
      8      12.8216      0.00000
      9      13.0562      0.00000
     10      13.2811      0.00000
     11      19.9417      0.00000
     12      20.5172      0.00000
     13      21.6992      0.00000
     14      21.7646      0.00000
     15      22.7790      0.00000
     16      22.8783      0.00000
     17      24.4507      0.00000
     18      25.8095      0.00000
     19      28.0303      0.00000
     20      28.7632      0.00000

 k-point 244 :       0.3291    0.6582    0.3291
  band No.  band energies     occupation 
      1      -2.9214      2.00000
      2      -0.8841      2.00000
      3       1.4271      2.00000
      4       3.7559      2.00000
      5       7.4395      0.00000
      6      11.7751      0.00000
      7      12.2151      0.00000
      8      12.8547      0.00000
      9      13.1939      0.00000
     10      13.4187      0.00000
     11      20.1118      0.00000
     12      20.6886      0.00000
     13      21.6231      0.00000
     14      21.6265      0.00000
     15      22.5783      0.00000
     16      23.2123      0.00000
     17      24.3437      0.00000
     18      25.7966      0.00000
     19      28.0569      0.00000
     20      28.5380      0.00000

 k-point 245 :       0.3367    0.6735    0.3367
  band No.  band energies     occupation 
      1      -2.8205      2.00000
      2      -0.9799      2.00000
      3       1.4148      2.00000
      4       3.6920      2.00000
      5       7.3654      0.00000
      6      11.5040      0.00000
      7      12.3891      0.00000
      8      12.9694      0.00000
      9      13.3347      0.00000
     10      13.5612      0.00000
     11      20.2788      0.00000
     12      20.8640      0.00000
     13      21.4791      0.00000
     14      21.5308      0.00000
     15      22.3745      0.00000
     16      23.5765      0.00000
     17      24.1651      0.00000
     18      25.8094      0.00000
     19      28.1313      0.00000
     20      28.3411      0.00000

 k-point 246 :       0.3444    0.6888    0.3444
  band No.  band energies     occupation 
      1      -2.7243      2.00000
      2      -1.0714      2.00000
      3       1.4137      2.00000
      4       3.6302      2.00000
      5       7.2937      0.00000
      6      11.2041      0.00000
      7      12.5663      0.00000
      8      13.1199      0.00000
      9      13.4783      0.00000
     10      13.7084      0.00000
     11      20.4363      0.00000
     12      21.0424      0.00000
     13      21.3320      0.00000
     14      21.4350      0.00000
     15      22.1670      0.00000
     16      23.9416      0.00000
     17      23.9536      0.00000
     18      25.8256      0.00000
     19      28.0979      0.00000
     20      28.2379      0.00000

 k-point 247 :       0.3520    0.7041    0.3520
  band No.  band energies     occupation 
      1      -2.6335      2.00000
      2      -1.1586      2.00000
      3       1.4244      2.00000
      4       3.5706      2.00000
      5       7.2245      0.00000
      6      10.8940      0.00000
      7      12.7465      0.00000
      8      13.2882      0.00000
      9      13.6243      0.00000
     10      13.8600      0.00000
     11      20.5698      0.00000
     12      21.1828      0.00000
     13      21.2226      0.00000
     14      21.3599      0.00000
     15      21.9571      0.00000
     16      23.6927      0.00000
     17      24.3362      0.00000
     18      25.8339      0.00000
     19      27.9077      0.00000
     20      28.3137      0.00000

 k-point 248 :       0.3597    0.7194    0.3597
  band No.  band energies     occupation 
      1      -2.5486      2.00000
      2      -1.2415      2.00000
      3       1.4472      2.00000
      4       3.5135      2.00000
      5       7.1582      0.00000
      6      10.5810      0.00000
      7      12.9297      0.00000
      8      13.4670      0.00000
      9      13.7725      0.00000
     10      14.0159      0.00000
     11      20.6506      0.00000
     12      21.0319      0.00000
     13      21.3373      0.00000
     14      21.4024      0.00000
     15      21.7445      0.00000
     16      23.4315      0.00000
     17      24.7202      0.00000
     18      25.8308      0.00000
     19      27.7023      0.00000
     20      27.9574      0.00000

 k-point 249 :       0.3673    0.7347    0.3673
  band No.  band energies     occupation 
      1      -2.4701      2.00000
      2      -1.3201      2.00000
      3       1.4823      2.00000
      4       3.4589      2.00000
      5       7.0948      0.00000
      6      10.2687      0.00000
      7      13.1156      0.00000
      8      13.6534      0.00000
      9      13.9225      0.00000
     10      14.1757      0.00000
     11      20.6512      0.00000
     12      20.8786      0.00000
     13      21.3962      0.00000
     14      21.5292      0.00000
     15      21.5776      0.00000
     16      23.1683      0.00000
     17      25.1025      0.00000
     18      25.8179      0.00000
     19      27.5212      0.00000
     20      27.7112      0.00000

 k-point 250 :       0.3750    0.7500    0.3750
  band No.  band energies     occupation 
      1      -2.3982      2.00000
      2      -1.3943      2.00000
      3       1.5298      2.00000
      4       3.4069      2.00000
      5       7.0344      0.00000
      6       9.9593      0.00000
      7      13.3040      0.00000
      8      13.8454      0.00000
      9      14.0737      0.00000
     10      14.3391      0.00000
     11      20.5836      0.00000
     12      20.7228      0.00000
     13      21.3113      0.00000
     14      21.5254      0.00000
     15      21.7381      0.00000
     16      22.9174      0.00000
     17      25.4801      0.00000
     18      25.7974      0.00000
     19      27.3509      0.00000
     20      27.4843      0.00000


--------------------------------------------------------------------------------------------------------


 soft charge-density along one line, spin component           1
         0         1         2         3         4         5         6         7         8         9
x     0.0000    0.0000    0.0000    0.0000    0.0000    0.0000    0.0000    0.0000    0.0000    0.0000
x     0.0000    0.0000    0.0000    0.0000    0.0000    0.0000    0.0000    0.0000    0.0000    0.0000
x     0.0000    0.0000    0.0000    0.0000    0.0000    0.0000    0.0000    0.0000    0.0000    0.0000
y     0.0000    0.0000    0.0000    0.0000    0.0000    0.0000    0.0000    0.0000    0.0000    0.0000
y     0.0000    0.0000    0.0000    0.0000    0.0000    0.0000    0.0000    0.0000    0.0000    0.0000
y     0.0000    0.0000    0.0000    0.0000    0.0000    0.0000    0.0000    0.0000    0.0000    0.0000
z     0.0000    0.0000    0.0000    0.0000    0.0000    0.0000    0.0000    0.0000    0.0000    0.0000
z     0.0000    0.0000    0.0000    0.0000    0.0000    0.0000    0.0000    0.0000    0.0000    0.0000
z     0.0000    0.0000    0.0000    0.0000    0.0000    0.0000    0.0000    0.0000    0.0000    0.0000
 total charge-density along one line
x     8.0000    0.0000    1.7630    0.0000    0.3544    0.0000    0.1553    0.0000    0.0218   -0.0000
x    -0.0043   -0.0000   -0.0006   -0.0000   -0.0004   -0.0000    0.0000    0.0000    0.0001    0.0000
x     0.0000   -0.0000    0.0000    0.0000   -0.0000    0.0000    0.0000   -0.0000    0.0000   -0.0000
x     0.0000    0.0000   -0.0000   -0.0000   -0.0000   -0.0000   -0.0000    0.0000   -0.0000   -0.0000
x     0.0000   -0.0000   -0.0000    0.0000   -0.0000    0.0000   -0.0000    0.0000    0.0000    0.0000
x     0.0000   -0.0000    0.0000   -0.0000    0.0000   -0.0000   -0.0000    0.0000
y     8.0000    0.0000    1.7630    0.0000    0.3544   -0.0000    0.1553   -0.0000    0.0218    0.0000
y    -0.0043   -0.0000   -0.0006   -0.0000   -0.0004    0.0000    0.0000   -0.0000    0.0001   -0.0000
y     0.0000    0.0000    0.0000   -0.0000   -0.0000   -0.0000    0.0000    0.0000    0.0000   -0.0000
y     0.0000   -0.0000   -0.0000    0.0000   -0.0000    0.0000   -0.0000   -0.0000   -0.0000    0.0000
y     0.0000    0.0000   -0.0000   -0.0000   -0.0000    0.0000   -0.0000    0.0000    0.0000   -0.0000
y     0.0000    0.0000    0.0000    0.0000    0.0000   -0.0000   -0.0000    0.0000
z     8.0000    0.0000    1.7630    0.0000    0.3544   -0.0000    0.1553   -0.0000    0.0218    0.0000
z    -0.0043   -0.0000   -0.0006   -0.0000   -0.0004    0.0000    0.0000   -0.0000    0.0001   -0.0000
z     0.0000    0.0000    0.0000   -0.0000   -0.0000   -0.0000    0.0000    0.0000    0.0000    0.0000
z     0.0000   -0.0000   -0.0000    0.0000   -0.0000    0.0000   -0.0000   -0.0000   -0.0000    0.0000
z     0.0000    0.0000   -0.0000   -0.0000   -0.0000    0.0000   -0.0000    0.0000    0.0000   -0.0000
z     0.0000    0.0000    0.0000    0.0000    0.0000   -0.0000   -0.0000   -0.0000
 
 pseudopotential strength for first ion, spin component:           1
 18.413  -0.001   0.000   0.000   0.000  -0.000  -0.000  -0.000
 -0.001   0.006  -0.000  -0.000  -0.000   0.000   0.000   0.000
  0.000  -0.000   4.178  -0.000  -0.000  -0.005   0.000   0.000
  0.000  -0.000  -0.000   4.178  -0.000   0.000  -0.005   0.000
  0.000  -0.000  -0.000  -0.000   4.178   0.000   0.000  -0.005
 -0.000   0.000  -0.005   0.000   0.000   0.005  -0.000  -0.000
 -0.000   0.000   0.000  -0.005   0.000  -0.000   0.005  -0.000
 -0.000   0.000   0.000   0.000  -0.005  -0.000  -0.000   0.005
 total augmentation occupancy for first ion, spin component:           1
  2.000   0.000   0.000   0.000   0.000   0.000   0.000   0.000
  0.000   0.000   0.000   0.000   0.000   0.000   0.000   0.000
  0.000   0.000   0.667   0.000   0.000   0.000   0.000   0.000
  0.000   0.000   0.000   0.667   0.000   0.000   0.000   0.000
  0.000   0.000   0.000   0.000   0.667   0.000   0.000   0.000
  0.000   0.000   0.000   0.000   0.000   0.000   0.000   0.000
  0.000   0.000   0.000   0.000   0.000   0.000   0.000   0.000
  0.000   0.000   0.000   0.000   0.000   0.000   0.000   0.000


------------------------ aborting loop because EDIFF is reached ----------------------------------------


    CHARGE:  cpu time    0.79: real time    0.79
    FORLOC:  cpu time    0.01: real time    0.01
    FORNL :  cpu time    0.54: real time    0.54
    STRESS:  cpu time    0.98: real time    0.98
    FORCOR:  cpu time    0.12: real time    0.12
    FORHAR:  cpu time    0.03: real time    0.03

  FORCE on cell =-STRESS in cart. coord.  units (eV):
  Direction    XX          YY          ZZ          XY          YZ          ZX
  --------------------------------------------------------------------------------------
  Alpha Z     3.36414     3.36414     3.36414
  Ewald     -76.18788   -76.18788   -76.18788    -0.00000    -0.00000     0.00000
  Hartree     5.47959     5.47959     5.47959     0.00000     0.00000     0.00000
  E(xc)     -25.41278   -25.41278   -25.41278     0.00000     0.00000     0.00000
  Local     -30.27700   -30.27700   -30.27700     0.00001     0.00001     0.00001
  n-local    78.84773    77.10781    74.66754    -1.09602    -0.83892    -1.95679
  augment   -11.18986   -11.18986   -11.18986    -0.00001    -0.00001    -0.00001
  Kinetic    60.18104    61.76213    58.56080    -1.44962    -1.31016    -1.74416
  Fock        0.00000     0.00000     0.00000     0.00000     0.00000     0.00000
  -------------------------------------------------------------------------------------
  Total       2.81857     2.81857     2.81857     0.00000    -0.00000     0.00000
  in kB     112.82344   112.82344   112.82344     0.00000    -0.00000     0.00000
  external pressure =      112.82 kB  Pullay stress =        0.00 kB


 VOLUME and BASIS-vectors are now :
 -----------------------------------------------------------------------------
  energy-cutoff  :      400.00
  volume of cell :       40.03
      direct lattice vectors                 reciprocal lattice vectors
     0.000000000  2.715000000  2.715000000    -0.184162063  0.184162063  0.184162063
     2.715000000  0.000000000  2.715000000     0.184162063 -0.184162063  0.184162063
     2.715000000  2.715000000  0.000000000     0.184162063  0.184162063 -0.184162063

  length of vectors
     3.839589822  3.839589822  3.839589822     0.318978049  0.318978049  0.318978049


 FORCES acting on ions
    electron-ion (+dipol)            ewald-force                    non-local-force                 convergence-correction
 -----------------------------------------------------------------------------------------------
   0.489E-08 0.826E-08 0.826E-08   0.154E-14 -.440E-14 -.300E-14   0.451E-16 0.208E-15 0.111E-15   -.336E-08 -.336E-08 -.336E-08
   -.489E-08 -.826E-08 -.826E-08   -.135E-14 0.482E-14 0.312E-14   -.451E-16 -.555E-16 -.694E-17   0.336E-08 0.336E-08 0.336E-08
 -----------------------------------------------------------------------------------------------
   -.132E-13 -.243E-13 -.214E-13   0.187E-15 0.422E-15 0.120E-15   0.000E+00 0.153E-15 0.104E-15   -.470E-13 -.370E-13 -.373E-13
 
 
 POSITION                                       TOTAL-FORCE (eV/Angst)
 -----------------------------------------------------------------------------------
      4.75125      4.75125      4.75125         0.000000     -0.000000      0.000000
      0.67875      0.67875      0.67875        -0.000000      0.000000     -0.000000
 -----------------------------------------------------------------------------------
    total drift:                               -0.000000     -0.000000     -0.000000


--------------------------------------------------------------------------------------------------------



  FREE ENERGIE OF THE ION-ELECTRON SYSTEM (eV)
  ---------------------------------------------------
  free  energy   TOTEN  =        -8.31129317 eV

  energy  without entropy=       -8.31129317  energy(sigma->0) =       -8.31129317
 


--------------------------------------------------------------------------------------------------------


    POTLOK:  cpu time    0.12: real time    0.12


--------------------------------------------------------------------------------------------------------




--------------------------------------------------------------------------------------------------------


  
 reached required accuracy - stopping structural energy minimisation
 writing wavefunctions
     LOOP+:  cpu time  124.02: real time  124.26
    4ORBIT:  cpu time    0.00: real time    0.00

 total amount of memory used by VASP on root node   112637. kBytes
========================================================================

   base      :      30000. kBytes
   nonl-proj :      11991. kBytes
   grid      :       9520. kBytes
   one-center:          6. kBytes
   wavefun   :      61120. kBytes
 
  
  
 General timing and accounting informations for this job:
 ========================================================
  
                  Total CPU time used (sec):      124.850
                            User time (sec):      124.675
                          System time (sec):        0.175
                         Elapsed time (sec):      125.213
  
                   Maximum memory used (kb):      220744.
                   Average memory used (kb):           0.
  
                          Minor page faults:        62872
                          Major page faults:            0
                 Voluntary context switches:         1713
