unknown system                          
   1.00000000000000     
     3.671874   -0.000000    0.000000
    -0.000000    3.671874   -0.000000
    -0.000000    0.000000    3.671874
   Cu
     4
Direct
  0.000000  0.000000  0.000000
  0.000000  0.500000  0.500000
  0.500000  0.000000  0.500000
  0.500000  0.500000  0.000000
 
   56   56   56
  832.28      816.47      770.75      699.92      611.01      512.16      411.42      315.84      230.85      160.04    
  105.14      66.080      41.185      27.428      20.881      17.372      14.611      12.491      10.931      9.8005    
  8.9768      8.3647      7.9008      7.5472      7.2817      7.0903      6.9624      6.8897      6.8661      6.8897    
  6.9624      7.0903      7.2817      7.5472      7.9008      8.3647      8.9768      9.8005      10.931      12.491    
  14.611      17.372      20.881      27.428      41.185      66.080      105.14      160.04      230.85      315.84    
  411.42      512.16      611.01      699.92      770.75      816.47      816.47      800.94      756.02      686.43    
  599.10      502.01      403.09      309.27      225.89      156.50      102.78      64.648      40.418      27.081    
  20.742      17.286      14.553      12.457      10.914      9.7958      8.9805      8.3742      7.9145      7.5640    
  7.3009      7.1114      6.9849      6.9129      6.8897      6.9129      6.9849      7.1114      7.3009      7.5640    
  7.9145      8.3742      8.9805      9.7958      10.914      12.457      14.553      17.286      20.742      27.081    
  40.418      64.648      102.78      156.50      225.89      309.27      403.09      502.01      599.10      686.43    
  756.02      800.94      770.75      756.02      713.43      647.44      564.65      472.66      379.01      290.30    
  211.62      146.34      96.039      60.571      38.251      26.111      20.349      17.034      14.384      12.357    
  10.866      9.7844      8.9940      8.4048      7.9576      7.6165      7.3607      7.1768      7.0544      6.9849    
  6.9624      6.9849      7.0544      7.1768      7.3607      7.6165      7.9576      8.4048      8.9940      9.7844    
  10.866      12.357      14.384      17.034      20.349      26.111      38.251      60.571      96.039      146.34    
  211.62      290.30      379.01      472.66      564.65      647.44      713.43      756.02      699.92      686.43    
  647.44      587.06      511.35      427.28      341.83      261.06      189.70      130.82      85.812      54.458    
  35.054      24.704      19.760      16.634      14.119      12.204      10.797      9.7739      9.0238      8.4629    
  8.0361      7.7106      7.4671      7.2925      7.1768      7.1114      7.0903      7.1114      7.1768      7.2925    
  7.4671      7.7106      8.0361      8.4629      9.0238      9.7739      10.797      12.204      14.119      16.634    
  19.760      24.704      35.054      54.458      85.812      130.82      189.70      261.06      341.83      427.28    
  511.35      587.06      647.44      686.43      611.01      599.10      564.65      511.35      444.55      370.51    
  295.41      224.71      162.59      111.78      73.427      47.189      31.347      23.104      19.028      16.113    
  13.782      12.017      10.720      9.7753      9.0795      8.5569      8.1585      7.8549      7.6284      7.4671    
  7.3607      7.3009      7.2817      7.3009      7.3607      7.4671      7.6284      7.8549      8.1585      8.5569    
  9.0795      9.7753      10.720      12.017      13.782      16.113      19.028      23.104      31.347      47.189    
  73.427      111.78      162.59      224.71      295.41      370.51      444.55      511.35      564.65      599.10    
  512.16      502.01      472.66      427.28      370.51      307.72      244.27      184.88      133.14      91.354    
  60.384      39.733      27.672      21.537      18.176      15.509      13.402      11.816      10.652      9.8017    
  9.1720      8.6971      8.3346      8.0590      7.8549      7.7106      7.6165      7.5640      7.5472      7.5640    
  7.6165      7.7106      7.8549      8.0590      8.3346      8.6971      9.1720      9.8017      10.652      11.816    
  13.402      15.509      18.176      21.537      27.672      39.733      60.384      91.354      133.14      184.88    
  244.27      307.72      370.51      427.28      472.66      502.01      411.42      403.09      379.01      341.83    
  295.41      244.27      192.89      145.20      104.17      71.622      48.107      32.964      24.467      20.118    
  17.238      14.864      13.013      11.628      10.612      9.8664      9.3126      8.8940      8.5751      8.3346    
  8.1585      8.0361      7.9576      7.9145      7.9008      7.9145      7.9576      8.0361      8.1585      8.3346    
  8.5751      8.8940      9.3126      9.8664      10.612      11.628      13.013      14.864      17.238      20.118    
  24.467      32.964      48.107      71.622      104.17      145.20      192.89      244.27      295.41      341.83    
  379.01      403.09      315.84      309.27      290.30      261.06      224.71      184.88      145.20      108.82    
  78.081      54.299      37.707      27.490      21.947      18.797      16.272      14.224      12.647      11.474    
  10.614      9.9828      9.5134      9.1601      8.8940      8.6971      8.5569      8.4629      8.4048      8.3742    
  8.3647      8.3742      8.4048      8.4629      8.5569      8.6971      8.8940      9.1601      9.5134      9.9828    
  10.614      11.474      12.647      14.224      16.272      18.797      21.947      27.490      37.707      54.299    
  78.081      108.82      145.20      184.88      224.71      261.06      290.30      309.27      230.85      225.89    
  211.62      189.70      162.59      133.14      104.17      78.081      56.580      40.516      29.812      23.527    
  20.031      17.483      15.336      13.630      12.333      11.375      10.676      10.166      9.7900      9.5134    
  9.3126      9.1720      9.0795      9.0238      8.9940      8.9805      8.9768      8.9805      8.9940      9.0238    
  9.0795      9.1720      9.3126      9.5134      9.7900      10.166      10.676      11.375      12.333      13.630    
  15.336      17.483      20.031      23.527      29.812      40.516      56.580      78.081      104.17      133.14    
  162.59      189.70      211.62      225.89      160.04      156.50      146.34      130.82      111.78      91.354    
  71.622      54.299      40.516      30.686      24.468      20.851      18.368      16.234      14.483      13.119    
  12.097      11.351      10.815      10.434      10.166      9.9828      9.8664      9.8017      9.7753      9.7739    
  9.7844      9.7958      9.8005      9.7958      9.7844      9.7739      9.7753      9.8017      9.8664      9.9828    
  10.166      10.434      10.815      11.351      12.097      13.119      14.483      16.234      18.368      20.851    
  24.468      30.686      40.516      54.299      71.622      91.354      111.78      130.82      146.34      156.50    
  105.14      102.78      96.039      85.812      73.427      60.384      48.107      37.707      29.812      24.468    
  21.145      18.834      16.817      15.114      13.754      12.717      11.958      11.420      11.053      10.815    
  10.676      10.614      10.612      10.652      10.720      10.797      10.866      10.914      10.931      10.914    
  10.866      10.797      10.720      10.652      10.612      10.614      10.676      10.815      11.053      11.420    
  11.958      12.717      13.754      15.114      16.817      18.834      21.145      24.468      29.812      37.707    
  48.107      60.384      73.427      85.812      96.039      102.78      66.080      64.648      60.571      54.458    
  47.189      39.733      32.964      27.490      23.527      20.851      18.834      17.019      15.449      14.167    
  13.173      12.442      11.933      11.604      11.420      11.351      11.375      11.474      11.628      11.816    
  12.017      12.204      12.357      12.457      12.491      12.457      12.357      12.204      12.017      11.816    
  11.628      11.474      11.375      11.351      11.420      11.604      11.933      12.442      13.173      14.167    
  15.449      17.019      18.834      20.851      23.527      27.490      32.964      39.733      47.189      54.458    
  60.571      64.648      41.185      40.418      38.251      35.054      31.347      27.672      24.467      21.947    
  20.031      18.368      16.817      15.449      14.311      13.416      12.756      12.307      12.042      11.933    
  11.958      12.097      12.333      12.647      13.013      13.402      13.782      14.119      14.384      14.553    
  14.611      14.553      14.384      14.119      13.782      13.402      13.013      12.647      12.333      12.097    
  11.958      11.933      12.042      12.307      12.756      13.416      14.311      15.449      16.817      18.368    
  20.031      21.947      24.467      27.672      31.347      35.054      38.251      40.418      27.428      27.081    
  26.111      24.704      23.104      21.537      20.118      18.797      17.483      16.234      15.114      14.167    
  13.416      12.864      12.505      12.324      12.307      12.442      12.717      13.119      13.630      14.224    
  14.864      15.509      16.113      16.634      17.034      17.286      17.372      17.286      17.034      16.634    
  16.113      15.509      14.864      14.224      13.630      13.119      12.717      12.442      12.307      12.324    
  12.505      12.864      13.416      14.167      15.114      16.234      17.483      18.797      20.118      21.537    
  23.104      24.704      26.111      27.081      20.881      20.742      20.349      19.760      19.028      18.176    
  17.238      16.272      15.336      14.483      13.754      13.173      12.756      12.505      12.422      12.505    
  12.756      13.173      13.754      14.483      15.336      16.272      17.238      18.176      19.028      19.760    
  20.349      20.742      20.881      20.742      20.349      19.760      19.028      18.176      17.238      16.272    
  15.336      14.483      13.754      13.173      12.756      12.505      12.422      12.505      12.756      13.173    
  13.754      14.483      15.336      16.272      17.238      18.176      19.028      19.760      20.349      20.742    
  17.372      17.286      17.034      16.634      16.113      15.509      14.864      14.224      13.630      13.119    
  12.717      12.442      12.307      12.324      12.505      12.864      13.416      14.167      15.114      16.234    
  17.483      18.797      20.118      21.537      23.104      24.704      26.111      27.081      27.428      27.081    
  26.111      24.704      23.104      21.537      20.118      18.797      17.483      16.234      15.114      14.167    
  13.416      12.864      12.505      12.324      12.307      12.442      12.717      13.119      13.630      14.224    
  14.864      15.509      16.113      16.634      17.034      17.286      14.611      14.553      14.384      14.119    
  13.782      13.402      13.013      12.647      12.333      12.097      11.958      11.933      12.042      12.307    
  12.756      13.416      14.311      15.449      16.817      18.368      20.031      21.947      24.467      27.672    
  31.347      35.054      38.251      40.418      41.185      40.418      38.251      35.054      31.347      27.672    
  24.467      21.947      20.031      18.368      16.817      15.449      14.311      13.416      12.756      12.307    
  12.042      11.933      11.958      12.097      12.333      12.647      13.013      13.402      13.782      14.119    
  14.384      14.553      12.491      12.457      12.357      12.204      12.017      11.816      11.628      11.474    
  11.375      11.351      11.420      11.604      11.933      12.442      13.173      14.167      15.449      17.019    
  18.834      20.851      23.527      27.490      32.964      39.733      47.189      54.458      60.571      64.648    
  66.080      64.648      60.571      54.458      47.189      39.733      32.964      27.490      23.527      20.851    
  18.834      17.019      15.449      14.167      13.173      12.442      11.933      11.604      11.420      11.351    
  11.375      11.474      11.628      11.816      12.017      12.204      12.357      12.457      10.931      10.914    
  10.866      10.797      10.720      10.652      10.612      10.614      10.676      10.815      11.053      11.420    
  11.958      12.717      13.754      15.114      16.817      18.834      21.145      24.468      29.812      37.707    
  48.107      60.384      73.427      85.812      96.039      102.78      105.14      102.78      96.039      85.812    
  73.427      60.384      48.107      37.707      29.812      24.468      21.145      18.834      16.817      15.114    
  13.754      12.717      11.958      11.420      11.053      10.815      10.676      10.614      10.612      10.652    
  10.720      10.797      10.866      10.914      9.8005      9.7958      9.7844      9.7739      9.7753      9.8017    
  9.8664      9.9828      10.166      10.434      10.815      11.351      12.097      13.119      14.483      16.234    
  18.368      20.851      24.468      30.686      40.516      54.299      71.622      91.354      111.78      130.82    
  146.34      156.50      160.04      156.50      146.34      130.82      111.78      91.354      71.622      54.299    
  40.516      30.686      24.468      20.851      18.368      16.234      14.483      13.119      12.097      11.351    
  10.815      10.434      10.166      9.9828      9.8664      9.8017      9.7753      9.7739      9.7844      9.7958    
  8.9768      8.9805      8.9940      9.0238      9.0795      9.1720      9.3126      9.5134      9.7900      10.166    
  10.676      11.375      12.333      13.630      15.336      17.483      20.031      23.527      29.812      40.516    
  56.580      78.081      104.17      133.14      162.59      189.70      211.62      225.89      230.85      225.89    
  211.62      189.70      162.59      133.14      104.17      78.081      56.580      40.516      29.812      23.527    
  20.031      17.483      15.336      13.630      12.333      11.375      10.676      10.166      9.7900      9.5134    
  9.3126      9.1720      9.0795      9.0238      8.9940      8.9805      8.3647      8.3742      8.4048      8.4629    
  8.5569      8.6971      8.8940      9.1601      9.5134      9.9828      10.614      11.474      12.647      14.224    
  16.272      18.797      21.947      27.490      37.707      54.299      78.081      108.82      145.20      184.88    
  224.71      261.06      290.30      309.27      315.84      309.27      290.30      261.06      224.71      184.88    
  145.20      108.82      78.081      54.299      37.707      27.490      21.947      18.797      16.272      14.224    
  12.647      11.474      10.614      9.9828      9.5134      9.1601      8.8940      8.6971      8.5569      8.4629    
  8.4048      8.3742      7.9008      7.9145      7.9576      8.0361      8.1585      8.3346      8.5751      8.8940    
  9.3126      9.8664      10.612      11.628      13.013      14.864      17.238      20.118      24.467      32.964    
  48.107      71.622      104.17      145.20      192.89      244.27      295.41      341.83      379.01      403.09    
  411.42      403.09      379.01      341.83      295.41      244.27      192.89      145.20      104.17      71.622    
  48.107      32.964      24.467      20.118      17.238      14.864      13.013      11.628      10.612      9.8664    
  9.3126      8.8940      8.5751      8.3346      8.1585      8.0361      7.9576      7.9145      7.5472      7.5640    
  7.6165      7.7106      7.8549      8.0590      8.3346      8.6971      9.1720      9.8017      10.652      11.816    
  13.402      15.509      18.176      21.537      27.672      39.733      60.384      91.354      133.14      184.88    
  244.27      307.72      370.51      427.28      472.66      502.01      512.16      502.01      472.66      427.28    
  370.51      307.72      244.27      184.88      133.14      91.354      60.384      39.733      27.672      21.537    
  18.176      15.509      13.402      11.816      10.652      9.8017      9.1720      8.6971      8.3346      8.0590    
  7.8549      7.7106      7.6165      7.5640      7.2817      7.3009      7.3607      7.4671      7.6284      7.8549    
  8.1585      8.5569      9.0795      9.7753      10.720      12.017      13.782      16.113      19.028      23.104    
  31.347      47.189      73.427      111.78      162.59      224.71      295.41      370.51      444.55      511.35    
  564.65      599.10      611.01      599.10      564.65      511.35      444.55      370.51      295.41      224.71    
  162.59      111.78      73.427      47.189      31.347      23.104      19.028      16.113      13.782      12.017    
  10.720      9.7753      9.0795      8.5569      8.1585      7.8549      7.6284      7.4671      7.3607      7.3009    
  7.0903      7.1114      7.1768      7.2925      7.4671      7.7106      8.0361      8.4629      9.0238      9.7739    
  10.797      12.204      14.119      16.634      19.760      24.704      35.054      54.458      85.812      130.82    
  189.70      261.06      341.83      427.28      511.35      587.06      647.44      686.43      699.92      686.43    
  647.44      587.06      511.35      427.28      341.83      261.06      189.70      130.82      85.812      54.458    
  35.054      24.704      19.760      16.634      14.119      12.204      10.797      9.7739      9.0238      8.4629    
  8.0361      7.7106      7.4671      7.2925      7.1768      7.1114      6.9624      6.9849      7.0544      7.1768    
  7.3607      7.6165      7.9576      8.4048      8.9940      9.7844      10.866      12.357      14.384      17.034    
  20.349      26.111      38.251      60.571      96.039      146.34      211.62      290.30      379.01      472.66    
  564.65      647.44      713.43      756.02      770.75      756.02      713.43      647.44      564.65      472.66    
  379.01      290.30      211.62      146.34      96.039      60.571      38.251      26.111      20.349      17.034    
  14.384      12.357      10.866      9.7844      8.9940      8.4048      7.9576      7.6165      7.3607      7.1768    
  7.0544      6.9849      6.8897      6.9129      6.9849      7.1114      7.3009      7.5640      7.9145      8.3742    
  8.9805      9.7958      10.914      12.457      14.553      17.286      20.742      27.081      40.418      64.648    
  102.78      156.50      225.89      309.27      403.09      502.01      599.10      686.43      756.02      800.94    
  816.47      800.94      756.02      686.43      599.10      502.01      403.09      309.27      225.89      156.50    
  102.78      64.648      40.418      27.081      20.742      17.286      14.553      12.457      10.914      9.7958    
  8.9805      8.3742      7.9145      7.5640      7.3009      7.1114      6.9849      6.9129      6.8661      6.8897    
  6.9624      7.0903      7.2817      7.5472      7.9008      8.3647      8.9768      9.8005      10.931      12.491    
  14.611      17.372      20.881      27.428      41.185      66.080      105.14      160.04      230.85      315.84    
  411.42      512.16      611.01      699.92      770.75      816.47      832.28      816.47      770.75      699.92    
  611.01      512.16      411.42      315.84      230.85      160.04      105.14      66.080      41.185      27.428    
  20.881      17.372      14.611      12.491      10.931      9.8005      8.9768      8.3647      7.9008      7.5472    
  7.2817      7.0903      6.9624      6.8897      6.8897      6.9129      6.9849      7.1114      7.3009      7.5640    
  7.9145      8.3742      8.9805      9.7958      10.914      12.457      14.553      17.286      20.742      27.081    
  40.418      64.648      102.78      156.50      225.89      309.27      403.09      502.01      599.10      686.43    
  756.02      800.94      816.47      800.94      756.02      686.43      599.10      502.01      403.09      309.27    
  225.89      156.50      102.78      64.648      40.418      27.081      20.742      17.286      14.553      12.457    
  10.914      9.7958      8.9805      8.3742      7.9145      7.5640      7.3009      7.1114      6.9849      6.9129    
  6.9624      6.9849      7.0544      7.1768      7.3607      7.6165      7.9576      8.4048      8.9940      9.7844    
  10.866      12.357      14.384      17.034      20.349      26.111      38.251      60.571      96.039      146.34    
  211.62      290.30      379.01      472.66      564.65      647.44      713.43      756.02      770.75      756.02    
  713.43      647.44      564.65      472.66      379.01      290.30      211.62      146.34      96.039      60.571    
  38.251      26.111      20.349      17.034      14.384      12.357      10.866      9.7844      8.9940      8.4048    
  7.9576      7.6165      7.3607      7.1768      7.0544      6.9849      7.0903      7.1114      7.1768      7.2925    
  7.4671      7.7106      8.0361      8.4629      9.0238      9.7739      10.797      12.204      14.119      16.634    
  19.760      24.704      35.054      54.458      85.812      130.82      189.70      261.06      341.83      427.28    
  511.35      587.06      647.44      686.43      699.92      686.43      647.44      587.06      511.35      427.28    
  341.83      261.06      189.70      130.82      85.812      54.458      35.054      24.704      19.760      16.634    
  14.119      12.204      10.797      9.7739      9.0238      8.4629      8.0361      7.7106      7.4671      7.2925    
  7.1768      7.1114      7.2817      7.3009      7.3607      7.4671      7.6284      7.8549      8.1585      8.5569    
  9.0795      9.7753      10.720      12.017      13.782      16.113      19.028      23.104      31.347      47.189    
  73.427      111.78      162.59      224.71      295.41      370.51      444.55      511.35      564.65      599.10    
  611.01      599.10      564.65      511.35      444.55      370.51      295.41      224.71      162.59      111.78    
  73.427      47.189      31.347      23.104      19.028      16.113      13.782      12.017      10.720      9.7753    
  9.0795      8.5569      8.1585      7.8549      7.6284      7.4671      7.3607      7.3009      7.5472      7.5640    
  7.6165      7.7106      7.8549      8.0590      8.3346      8.6971      9.1720      9.8017      10.652      11.816    
  13.402      15.509      18.176      21.537      27.672      39.733      60.384      91.354      133.14      184.88    
  244.27      307.72      370.51      427.28      472.66      502.01      512.16      502.01      472.66      427.28    
  370.51      307.72      244.27      184.88      133.14      91.354      60.384      39.733      27.672      21.537    
  18.176      15.509      13.402      11.816      10.652      9.8017      9.1720      8.6971      8.3346      8.0590    
  7.8549      7.7106      7.6165      7.5640      7.9008      7.9145      7.9576      8.0361      8.1585      8.3346    
  8.5751      8.8940      9.3126      9.8664      10.612      11.628      13.013      14.864      17.238      20.118    
  24.467      32.964      48.107      71.622      104.17      145.20      192.89      244.27      295.41      341.83    
  379.01      403.09      411.42      403.09      379.01      341.83      295.41      244.27      192.89      145.20    
  104.17      71.622      48.107      32.964      24.467      20.118      17.238      14.864      13.013      11.628    
  10.612      9.8664      9.3126      8.8940      8.5751      8.3346      8.1585      8.0361      7.9576      7.9145    
  8.3647      8.3742      8.4048      8.4629      8.5569      8.6971      8.8940      9.1601      9.5134      9.9828    
  10.614      11.474      12.647      14.224      16.272      18.797      21.947      27.490      37.707      54.299    
  78.081      108.82      145.20      184.88      224.71      261.06      290.30      309.27      315.84      309.27    
  290.30      261.06      224.71      184.88      145.20      108.82      78.081      54.299      37.707      27.490    
  21.947      18.797      16.272      14.224      12.647      11.474      10.614      9.9828      9.5134      9.1601    
  8.8940      8.6971      8.5569      8.4629      8.4048      8.3742      8.9768      8.9805      8.9940      9.0238    
  9.0795      9.1720      9.3126      9.5134      9.7900      10.166      10.676      11.375      12.333      13.630    
  15.336      17.483      20.031      23.527      29.812      40.516      56.580      78.081      104.17      133.14    
  162.59      189.70      211.62      225.89      230.85      225.89      211.62      189.70      162.59      133.14    
  104.17      78.081      56.580      40.516      29.812      23.527      20.031      17.483      15.336      13.630    
  12.333      11.375      10.676      10.166      9.7900      9.5134      9.3126      9.1720      9.0795      9.0238    
  8.9940      8.9805      9.8005      9.7958      9.7844      9.7739      9.7753      9.8017      9.8664      9.9828    
  10.166      10.434      10.815      11.351      12.097      13.119      14.483      16.234      18.368      20.851    
  24.468      30.686      40.516      54.299      71.622      91.354      111.78      130.82      146.34      156.50    
  160.04      156.50      146.34      130.82      111.78      91.354      71.622      54.299      40.516      30.686    
  24.468      20.851      18.368      16.234      14.483      13.119      12.097      11.351      10.815      10.434    
  10.166      9.9828      9.8664      9.8017      9.7753      9.7739      9.7844      9.7958      10.931      10.914    
  10.866      10.797      10.720      10.652      10.612      10.614      10.676      10.815      11.053      11.420    
  11.958      12.717      13.754      15.114      16.817      18.834      21.145      24.468      29.812      37.707    
  48.107      60.384      73.427      85.812      96.039      102.78      105.14      102.78      96.039      85.812    
  73.427      60.384      48.107      37.707      29.812      24.468      21.145      18.834      16.817      15.114    
  13.754      12.717      11.958      11.420      11.053      10.815      10.676      10.614      10.612      10.652    
  10.720      10.797      10.866      10.914      12.491      12.457      12.357      12.204      12.017      11.816    
  11.628      11.474      11.375      11.351      11.420      11.604      11.933      12.442      13.173      14.167    
  15.449      17.019      18.834      20.851      23.527      27.490      32.964      39.733      47.189      54.458    
  60.571      64.648      66.080      64.648      60.571      54.458      47.189      39.733      32.964      27.490    
  23.527      20.851      18.834      17.019      15.449      14.167      13.173      12.442      11.933      11.604    
  11.420      11.351      11.375      11.474      11.628      11.816      12.017      12.204      12.357      12.457    
  14.611      14.553      14.384      14.119      13.782      13.402      13.013      12.647      12.333      12.097    
  11.958      11.933      12.042      12.307      12.756      13.416      14.311      15.449      16.817      18.368    
  20.031      21.947      24.467      27.672      31.347      35.054      38.251      40.418      41.185      40.418    
  38.251      35.054      31.347      27.672      24.467      21.947      20.031      18.368      16.817      15.449    
  14.311      13.416      12.756      12.307      12.042      11.933      11.958      12.097      12.333      12.647    
  13.013      13.402      13.782      14.119      14.384      14.553      17.372      17.286      17.034      16.634    
  16.113      15.509      14.864      14.224      13.630      13.119      12.717      12.442      12.307      12.324    
  12.505      12.864      13.416      14.167      15.114      16.234      17.483      18.797      20.118      21.537    
  23.104      24.704      26.111      27.081      27.428      27.081      26.111      24.704      23.104      21.537    
  20.118      18.797      17.483      16.234      15.114      14.167      13.416      12.864      12.505      12.324    
  12.307      12.442      12.717      13.119      13.630      14.224      14.864      15.509      16.113      16.634    
  17.034      17.286      20.881      20.742      20.349      19.760      19.028      18.176      17.238      16.272    
  15.336      14.483      13.754      13.173      12.756      12.505      12.422      12.505      12.756      13.173    
  13.754      14.483      15.336      16.272      17.238      18.176      19.028      19.760      20.349      20.742    
  20.881      20.742      20.349      19.760      19.028      18.176      17.238      16.272      15.336      14.483    
  13.754      13.173      12.756      12.505      12.422      12.505      12.756      13.173      13.754      14.483    
  15.336      16.272      17.238      18.176      19.028      19.760      20.349      20.742      27.428      27.081    
  26.111      24.704      23.104      21.537      20.118      18.797      17.483      16.234      15.114      14.167    
  13.416      12.864      12.505      12.324      12.307      12.442      12.717      13.119      13.630      14.224    
  14.864      15.509      16.113      16.634      17.034      17.286      17.372      17.286      17.034      16.634    
  16.113      15.509      14.864      14.224      13.630      13.119      12.717      12.442      12.307      12.324    