   4   4   1   0
  0.1182420E+02  0.3616407E-09  0.3616407E-09  0.3616407E-09  0.5000000E-15
  1.000000000000000E-004
  CAR 
 unknown system                          
     16.97356190     -2.62289002  301      7.33409023      1.00000000
     -2.623  0.0000E+00  0.0000E+00
     -2.558  0.0000E+00  0.0000E+00
     -2.492  0.0000E+00  0.0000E+00
     -2.427  0.0000E+00  0.0000E+00
     -2.362  0.0000E+00  0.0000E+00
     -2.296  0.0000E+00  0.0000E+00
     -2.231  0.0000E+00  0.0000E+00
     -2.166  0.0000E+00  0.0000E+00
     -2.100  0.0000E+00  0.0000E+00
     -2.035  0.0000E+00  0.0000E+00
     -1.970  0.0000E+00  0.0000E+00
     -1.904  0.0000E+00  0.0000E+00
     -1.839  0.0000E+00  0.0000E+00
     -1.774  0.0000E+00  0.0000E+00
     -1.708  0.7260E-03  0.5569E-04
     -1.643  0.9776E-03  0.1112E-03
     -1.578  0.1256E-02  0.1840E-03
     -1.512  0.1562E-02  0.2759E-03
     -1.447  0.1896E-02  0.3887E-03
     -1.382  0.2256E-02  0.5241E-03
     -1.316  0.2180E-02  0.6664E-03
     -1.251  0.2329E-02  0.8138E-03
     -1.186  0.2464E-02  0.9703E-03
     -1.120  0.2586E-02  0.1135E-02
     -1.055  0.2696E-02  0.1308E-02
     -0.990  0.2803E-02  0.1487E-02
     -0.925  0.2960E-02  0.1675E-02
     -0.859  0.3126E-02  0.1874E-02
     -0.794  0.3301E-02  0.2084E-02
     -0.729  0.3487E-02  0.2306E-02
     -0.663  0.3681E-02  0.2540E-02
     -0.598  0.3732E-02  0.2781E-02
     -0.533  0.3846E-02  0.3029E-02
     -0.467  0.3950E-02  0.3283E-02
     -0.402  0.4044E-02  0.3544E-02
     -0.337  0.4127E-02  0.3811E-02
     -0.271  0.4242E-02  0.4084E-02
     -0.206  0.4365E-02  0.4365E-02
     -0.141  0.4496E-02  0.4655E-02
     -0.075  0.4634E-02  0.4953E-02
     -0.010  0.4779E-02  0.5260E-02
      0.055  0.4928E-02  0.5577E-02
      0.121  0.5075E-02  0.5904E-02
      0.186  0.5225E-02  0.6240E-02
      0.251  0.5376E-02  0.6587E-02
      0.317  0.5529E-02  0.6943E-02
      0.382  0.7001E-02  0.7454E-02
      0.447  0.7270E-02  0.7920E-02
      0.513  0.7507E-02  0.8403E-02
      0.578  0.7711E-02  0.8900E-02
      0.643  0.7883E-02  0.9409E-02
      0.709  0.7289E-02  0.9907E-02
      0.774  0.7187E-02  0.1038E-01
      0.839  0.7083E-02  0.1085E-01
      0.904  0.6977E-02  0.1130E-01
      0.970  0.6894E-02  0.1176E-01
      1.035  0.6909E-02  0.1221E-01
      1.100  0.6909E-02  0.1266E-01
      1.166  0.6895E-02  0.1311E-01
      1.231  0.6863E-02  0.1356E-01
      1.296  0.6641E-02  0.1400E-01
      1.362  0.6509E-02  0.1443E-01
      1.427  0.6386E-02  0.1485E-01
      1.492  0.8672E-02  0.1540E-01
      1.558  0.9400E-02  0.1599E-01
      1.623  0.1020E-01  0.1663E-01
      1.688  0.1107E-01  0.1733E-01
      1.754  0.1148E-01  0.1808E-01
      1.819  0.1205E-01  0.1885E-01
      1.884  0.1277E-01  0.1966E-01
      1.950  0.1344E-01  0.2051E-01
      2.015  0.1438E-01  0.2142E-01
      2.080  0.1607E-01  0.2268E-01
      2.146  0.1572E-01  0.2371E-01
      2.211  0.1574E-01  0.2476E-01
      2.276  0.1470E-01  0.2585E-01
      2.342  0.2036E-01  0.2701E-01
      2.407  0.2719E-01  0.2850E-01
      2.472  0.4360E-01  0.3114E-01
      2.538  0.3673E-01  0.3366E-01
      2.603  0.5026E-01  0.3655E-01
      2.668  0.4768E-01  0.3971E-01
      2.733  0.4901E-01  0.4287E-01
      2.799  0.4500E-01  0.4631E-01
      2.864  0.4776E-01  0.4930E-01
      2.929  0.5207E-01  0.5255E-01
      2.995  0.5772E-01  0.5614E-01
      3.060  0.7106E-01  0.6038E-01
      3.125  0.8801E-01  0.6539E-01
      3.191  0.9283E-01  0.7164E-01
      3.256  0.9743E-01  0.7781E-01
      3.321  0.1119E+00  0.8498E-01
      3.387  0.9274E-01  0.9158E-01
      3.452  0.6368E-01  0.9604E-01
      3.517  0.7565E-01  0.1006E+00
      3.583  0.9367E-01  0.1069E+00
      3.648  0.9695E-01  0.1145E+00
      3.713  0.7271E-01  0.1199E+00
      3.779  0.6231E-01  0.1242E+00
      3.844  0.9050E-01  0.1296E+00
      3.909  0.1037E+00  0.1366E+00
      3.975  0.1084E+00  0.1436E+00
      4.040  0.1122E+00  0.1509E+00
      4.105  0.1462E+00  0.1618E+00
      4.171  0.1360E+00  0.1707E+00
      4.236  0.1370E+00  0.1798E+00
      4.301  0.1550E+00  0.1894E+00
      4.367  0.1775E+00  0.2010E+00
      4.432  0.2007E+00  0.2139E+00
      4.497  0.1503E+00  0.2265E+00
      4.562  0.1211E+00  0.2344E+00
      4.628  0.1138E+00  0.2423E+00
      4.693  0.1410E+00  0.2507E+00
      4.758  0.1578E+00  0.2603E+00
      4.824  0.9683E-01  0.2688E+00
      4.889  0.1079E+00  0.2758E+00
      4.954  0.1471E+00  0.2837E+00
      5.020  0.1645E+00  0.2949E+00
      5.085  0.1277E+00  0.3050E+00
      5.150  0.1366E+00  0.3147E+00
      5.216  0.1163E+00  0.3229E+00
      5.281  0.1147E+00  0.3310E+00
      5.346  0.1367E+00  0.3420E+00
      5.412  0.1310E+00  0.3508E+00
      5.477  0.1656E+00  0.3598E+00
      5.542  0.1676E+00  0.3709E+00
      5.608  0.1930E+00  0.3819E+00
      5.673  0.2662E+00  0.3978E+00
      5.738  0.1287E+00  0.4122E+00
      5.804  0.3743E-01  0.4209E+00
      5.869  0.2398E-01  0.4228E+00
      5.934  0.1979E-01  0.4241E+00
      6.000  0.1696E-01  0.4254E+00
      6.065  0.1569E-01  0.4264E+00
      6.130  0.1462E-01  0.4274E+00
      6.196  0.1502E-01  0.4284E+00
      6.261  0.1374E-01  0.4293E+00
      6.326  0.1239E-01  0.4301E+00
      6.391  0.1240E-01  0.4309E+00
      6.457  0.1234E-01  0.4318E+00
      6.522  0.1293E-01  0.4326E+00
      6.587  0.1323E-01  0.4334E+00
      6.653  0.1351E-01  0.4343E+00
      6.718  0.1377E-01  0.4352E+00
      6.783  0.1401E-01  0.4361E+00
      6.849  0.1977E-01  0.4372E+00
      6.914  0.2208E-01  0.4386E+00
      6.979  0.1995E-01  0.4400E+00
      7.045  0.1061E-01  0.4415E+00
      7.110  0.1031E-01  0.4422E+00
      7.175  0.9992E-02  0.4429E+00
      7.241  0.1012E-01  0.4435E+00
      7.306  0.9778E-02  0.4442E+00
      7.371  0.9597E-02  0.4448E+00
      7.437  0.9476E-02  0.4454E+00
      7.502  0.9413E-02  0.4460E+00
      7.567  0.9470E-02  0.4467E+00
      7.633  0.9548E-02  0.4473E+00
      7.698  0.9633E-02  0.4479E+00
      7.763  0.1051E-01  0.4486E+00
      7.829  0.1086E-01  0.4493E+00
      7.894  0.1130E-01  0.4500E+00
      7.959  0.1188E-01  0.4507E+00
      8.025  0.3023E-01  0.4517E+00
      8.090  0.1265E-01  0.4527E+00
      8.155  0.1277E-01  0.4535E+00
      8.220  0.1286E-01  0.4544E+00
      8.286  0.1218E-01  0.4552E+00
      8.351  0.1274E-01  0.4560E+00
      8.416  0.9652E-02  0.4567E+00
      8.482  0.9740E-02  0.4574E+00
      8.547  0.9833E-02  0.4580E+00
      8.612  0.9930E-02  0.4587E+00
      8.678  0.1003E-01  0.4593E+00
      8.743  0.1014E-01  0.4600E+00
      8.808  0.1075E-01  0.4608E+00
      8.874  0.1092E-01  0.4615E+00
      8.939  0.1060E-01  0.4622E+00
      9.004  0.1057E-01  0.4629E+00
      9.070  0.1052E-01  0.4636E+00
      9.135  0.1046E-01  0.4643E+00
      9.200  0.1039E-01  0.4649E+00
      9.266  0.1030E-01  0.4656E+00
      9.331  0.1057E-01  0.4663E+00
      9.396  0.1130E-01  0.4670E+00
      9.462  0.1201E-01  0.4678E+00
      9.527  0.1176E-01  0.4685E+00
      9.592  0.1076E-01  0.4693E+00
      9.658  0.1030E-01  0.4700E+00
      9.723  0.9795E-02  0.4706E+00
      9.788  0.9396E-02  0.4712E+00
      9.854  0.9198E-02  0.4718E+00
      9.919  0.8988E-02  0.4724E+00
      9.984  0.8766E-02  0.4730E+00
     10.049  0.8533E-02  0.4736E+00
     10.115  0.9184E-02  0.4742E+00
     10.180  0.7997E-02  0.4748E+00
     10.245  0.7502E-02  0.4753E+00
     10.311  0.7400E-02  0.4757E+00
     10.376  0.7297E-02  0.4762E+00
     10.441  0.7194E-02  0.4767E+00
     10.507  0.7090E-02  0.4772E+00
     10.572  0.6985E-02  0.4776E+00
     10.637  0.6879E-02  0.4781E+00
     10.703  0.6772E-02  0.4785E+00
     10.768  0.6655E-02  0.4790E+00
     10.833  0.6605E-02  0.4794E+00
     10.899  0.6553E-02  0.4798E+00
     10.964  0.6499E-02  0.4803E+00
     11.029  0.6443E-02  0.4807E+00
     11.095  0.6903E-02  0.4811E+00
     11.160  0.1082E-01  0.4818E+00
     11.225  0.1203E-01  0.4826E+00
     11.291  0.9781E-02  0.4833E+00
     11.356  0.8012E-02  0.4839E+00
     11.421  0.7661E-02  0.4844E+00
     11.487  0.7926E-02  0.4849E+00
     11.552  0.8268E-02  0.4854E+00
     11.617  0.8689E-02  0.4859E+00
     11.683  0.9188E-02  0.4865E+00
     11.748  0.9348E-02  0.4871E+00
     11.813  0.9289E-02  0.4877E+00
     11.878  0.9441E-02  0.4884E+00
     11.944  0.9604E-02  0.4890E+00
     12.009  0.9546E-02  0.4896E+00
     12.074  0.9382E-02  0.4902E+00
     12.140  0.7985E-02  0.4910E+00
     12.205  0.7396E-02  0.4915E+00
     12.270  0.7537E-02  0.4920E+00
     12.336  0.7828E-02  0.4925E+00
     12.401  0.8300E-02  0.4930E+00
     12.466  0.8745E-02  0.4936E+00
     12.532  0.9163E-02  0.4942E+00
     12.597  0.9570E-02  0.4948E+00
     12.662  0.1000E-01  0.4954E+00
     12.728  0.1095E-01  0.4961E+00
     12.793  0.1109E-01  0.4968E+00
     12.858  0.1071E-01  0.4976E+00
     12.924  0.1077E-01  0.4983E+00
     12.989  0.1084E-01  0.4990E+00
     13.054  0.1091E-01  0.4997E+00
     13.120  0.1100E-01  0.5004E+00
     13.185  0.1068E-01  0.5011E+00
     13.250  0.1023E-01  0.5018E+00
     13.316  0.9771E-02  0.5024E+00
     13.381  0.9287E-02  0.5031E+00
     13.446  0.8781E-02  0.5037E+00
     13.512  0.8138E-02  0.5042E+00
     13.577  0.7884E-02  0.5047E+00
     13.642  0.7758E-02  0.5052E+00
     13.707  0.8686E-02  0.5060E+00
     13.773  0.8834E-02  0.5066E+00
     13.838  0.8974E-02  0.5071E+00
     13.903  0.9079E-02  0.5077E+00
     13.969  0.9209E-02  0.5083E+00
     14.034  0.9331E-02  0.5089E+00
     14.099  0.9443E-02  0.5096E+00
     14.165  0.8380E-02  0.5102E+00
     14.230  0.8295E-02  0.5107E+00
     14.295  0.8195E-02  0.5112E+00
     14.361  0.8080E-02  0.5118E+00
     14.426  0.7953E-02  0.5123E+00
     14.491  0.7917E-02  0.5128E+00
     14.557  0.7877E-02  0.5133E+00
     14.622  0.7832E-02  0.5138E+00
     14.687  0.7278E-02  0.5145E+00
     14.753  0.1153E-01  0.5152E+00
     14.818  0.1424E-01  0.5160E+00
     14.883  0.1745E-01  0.5170E+00
     14.949  0.1254E-01  0.5181E+00
     15.014  0.1257E-01  0.5189E+00
     15.079  0.1229E-01  0.5197E+00
     15.145  0.1199E-01  0.5205E+00
     15.210  0.9853E-02  0.5213E+00
     15.275  0.9460E-02  0.5219E+00
     15.341  0.8750E-02  0.5225E+00
     15.406  0.7717E-02  0.5230E+00
     15.471  0.6360E-02  0.5235E+00
     15.536  0.4694E-02  0.5239E+00
     15.602  0.3711E-02  0.5241E+00
     15.667  0.3213E-02  0.5244E+00
     15.732  0.2747E-02  0.5246E+00
     15.798  0.2311E-02  0.5247E+00
     15.863  0.1905E-02  0.5249E+00
     15.928  0.1530E-02  0.5250E+00
     15.994  0.1186E-02  0.5251E+00
     16.059  0.7480E-03  0.5251E+00
     16.124  0.0000E+00  0.5253E+00
     16.190  0.0000E+00  0.5253E+00
     16.255  0.0000E+00  0.5253E+00
     16.320  0.0000E+00  0.5253E+00
     16.386  0.0000E+00  0.5253E+00
     16.451  0.0000E+00  0.5253E+00
     16.516  0.0000E+00  0.5253E+00
     16.582  0.0000E+00  0.5253E+00
     16.647  0.0000E+00  0.5253E+00
     16.712  0.0000E+00  0.5253E+00
     16.778  0.0000E+00  0.5253E+00
     16.843  0.0000E+00  0.5253E+00
     16.908  0.0000E+00  0.5253E+00
     16.974  0.0000E+00  0.5253E+00
     16.97356190     -2.62289002  301      7.33409023      1.00000000
     -2.623  0.0000E+00  0.0000E+00  0.0000E+00  0.0000E+00  0.0000E+00  0.0000E+00  0.0000E+00  0.0000E+00  0.0000E+00
     -2.558  0.0000E+00  0.0000E+00  0.0000E+00  0.0000E+00  0.0000E+00  0.0000E+00  0.0000E+00  0.0000E+00  0.0000E+00
     -2.492  0.0000E+00  0.0000E+00  0.0000E+00  0.0000E+00  0.0000E+00  0.0000E+00  0.0000E+00  0.0000E+00  0.0000E+00
     -2.427  0.0000E+00  0.0000E+00  0.0000E+00  0.0000E+00  0.0000E+00  0.0000E+00  0.0000E+00  0.0000E+00  0.0000E+00
     -2.362  0.0000E+00  0.0000E+00  0.0000E+00  0.0000E+00  0.0000E+00  0.0000E+00  0.0000E+00  0.0000E+00  0.0000E+00
     -2.296  0.0000E+00  0.0000E+00  0.0000E+00  0.0000E+00  0.0000E+00  0.0000E+00  0.0000E+00  0.0000E+00  0.0000E+00
     -2.231  0.0000E+00  0.0000E+00  0.0000E+00  0.0000E+00  0.0000E+00  0.0000E+00  0.0000E+00  0.0000E+00  0.0000E+00
     -2.166  0.0000E+00  0.0000E+00  0.0000E+00  0.0000E+00  0.0000E+00  0.0000E+00  0.0000E+00  0.0000E+00  0.0000E+00
     -2.100  0.0000E+00  0.0000E+00  0.0000E+00  0.0000E+00  0.0000E+00  0.0000E+00  0.0000E+00  0.0000E+00  0.0000E+00
     -2.035  0.0000E+00  0.0000E+00  0.0000E+00  0.0000E+00  0.0000E+00  0.0000E+00  0.0000E+00  0.0000E+00  0.0000E+00
     -1.970  0.0000E+00  0.0000E+00  0.0000E+00  0.0000E+00  0.0000E+00  0.0000E+00  0.0000E+00  0.0000E+00  0.0000E+00
     -1.904  0.0000E+00  0.0000E+00  0.0000E+00  0.0000E+00  0.0000E+00  0.0000E+00  0.0000E+00  0.0000E+00  0.0000E+00
     -1.839  0.0000E+00  0.0000E+00  0.0000E+00  0.0000E+00  0.0000E+00  0.0000E+00  0.0000E+00  0.0000E+00  0.0000E+00
     -1.774  0.0000E+00  0.0000E+00  0.0000E+00  0.0000E+00  0.0000E+00  0.0000E+00  0.0000E+00  0.0000E+00  0.0000E+00
     -1.708  0.1005E-01  0.4582E-04  0.4101E-04  0.1418E-03  0.2658E-05  0.6817E-06  0.8635E-06  0.2008E-05  0.2153E-05
     -1.643  0.1346E-01  0.7635E-04  0.5553E-04  0.2465E-03  0.6465E-05  0.1299E-05  0.1904E-05  0.3652E-05  0.3819E-05
     -1.578  0.1723E-01  0.1131E-03  0.7223E-04  0.3697E-03  0.1123E-04  0.2153E-05  0.3159E-05  0.5699E-05  0.5757E-05
     -1.512  0.2136E-01  0.1562E-03  0.9111E-04  0.5112E-03  0.1694E-04  0.3242E-05  0.4628E-05  0.8150E-05  0.7967E-05
     -1.447  0.2584E-01  0.2055E-03  0.1122E-03  0.6711E-03  0.2361E-04  0.4568E-05  0.6311E-05  0.1100E-04  0.1045E-04
     -1.382  0.3068E-01  0.2610E-03  0.1354E-03  0.8493E-03  0.3124E-04  0.6130E-05  0.8209E-05  0.1426E-04  0.1320E-04
     -1.316  0.2920E-01  0.3897E-03  0.1343E-03  0.1093E-02  0.5730E-04  0.9518E-05  0.1733E-04  0.1971E-04  0.2659E-04
     -1.251  0.3099E-01  0.4669E-03  0.1499E-03  0.1282E-02  0.7635E-04  0.1275E-04  0.2355E-04  0.2517E-04  0.3587E-04
     -1.186  0.3259E-01  0.5393E-03  0.1682E-03  0.1478E-02  0.9681E-04  0.1671E-04  0.3027E-04  0.3192E-04  0.4653E-04
     -1.120  0.3399E-01  0.6070E-03  0.1894E-03  0.1682E-02  0.1187E-03  0.2140E-04  0.3748E-04  0.3999E-04  0.5858E-04
     -1.055  0.3520E-01  0.6698E-03  0.2133E-03  0.1895E-02  0.1420E-03  0.2682E-04  0.4520E-04  0.4935E-04  0.7201E-04
     -0.990  0.3637E-01  0.7321E-03  0.2384E-03  0.2119E-02  0.1685E-03  0.3273E-04  0.5379E-04  0.5974E-04  0.8653E-04
     -0.925  0.3818E-01  0.8183E-03  0.2584E-03  0.2371E-02  0.2078E-03  0.3856E-04  0.6496E-04  0.7062E-04  0.1005E-03
     -0.859  0.4008E-01  0.9144E-03  0.2810E-03  0.2641E-02  0.2535E-03  0.4579E-04  0.7721E-04  0.8352E-04  0.1148E-03
     -0.794  0.4208E-01  0.1020E-02  0.3060E-03  0.2926E-02  0.3056E-03  0.5441E-04  0.9054E-04  0.9846E-04  0.1295E-03
     -0.729  0.4418E-01  0.1136E-02  0.3335E-03  0.3229E-02  0.3641E-03  0.6441E-04  0.1049E-03  0.1154E-03  0.1446E-03
     -0.663  0.4639E-01  0.1261E-02  0.3635E-03  0.3548E-02  0.4290E-03  0.7581E-04  0.1204E-03  0.1344E-03  0.1601E-03
     -0.598  0.4651E-01  0.1353E-02  0.3957E-03  0.3868E-02  0.4984E-03  0.9078E-04  0.1504E-03  0.1620E-03  0.2219E-03
     -0.533  0.4758E-01  0.1434E-02  0.4326E-03  0.4182E-02  0.5690E-03  0.1073E-03  0.1749E-03  0.1918E-03  0.2684E-03
     -0.467  0.4849E-01  0.1510E-02  0.4668E-03  0.4500E-02  0.6419E-03  0.1245E-03  0.2016E-03  0.2228E-03  0.3206E-03
     -0.402  0.4924E-01  0.1581E-02  0.4983E-03  0.4821E-02  0.7172E-03  0.1424E-03  0.2305E-03  0.2549E-03  0.3786E-03
     -0.337  0.4984E-01  0.1648E-02  0.5271E-03  0.5145E-02  0.7948E-03  0.1611E-03  0.2615E-03  0.2882E-03  0.4424E-03
     -0.271  0.5062E-01  0.1808E-02  0.5530E-03  0.5573E-02  0.9537E-03  0.1851E-03  0.3101E-03  0.3267E-03  0.5088E-03
     -0.206  0.5165E-01  0.1928E-02  0.5785E-03  0.5940E-02  0.1092E-02  0.2121E-03  0.3521E-03  0.3678E-03  0.5728E-03
     -0.141  0.5275E-01  0.2055E-02  0.6046E-03  0.6314E-02  0.1244E-02  0.2453E-03  0.3960E-03  0.4155E-03  0.6386E-03
     -0.075  0.5391E-01  0.2189E-02  0.6313E-03  0.6695E-02  0.1411E-02  0.2846E-03  0.4418E-03  0.4698E-03  0.7063E-03
     -0.010  0.5513E-01  0.2330E-02  0.6586E-03  0.7084E-02  0.1593E-02  0.3301E-03  0.4896E-03  0.5308E-03  0.7759E-03
      0.055  0.5639E-01  0.2472E-02  0.6868E-03  0.7473E-02  0.1783E-02  0.3792E-03  0.5386E-03  0.5959E-03  0.8474E-03
      0.121  0.5764E-01  0.2606E-02  0.7166E-03  0.7860E-02  0.1975E-02  0.4310E-03  0.5883E-03  0.6653E-03  0.9217E-03
      0.186  0.5889E-01  0.2737E-02  0.7477E-03  0.8257E-02  0.2176E-02  0.4884E-03  0.6394E-03  0.7424E-03  0.9993E-03
      0.251  0.6013E-01  0.2867E-02  0.7802E-03  0.8663E-02  0.2386E-02  0.5516E-03  0.6917E-03  0.8273E-03  0.1080E-02
      0.317  0.6137E-01  0.2995E-02  0.8140E-03  0.9078E-02  0.2605E-02  0.6205E-03  0.7453E-03  0.9200E-03  0.1164E-02
      0.382  0.7675E-01  0.3356E-02  0.9111E-03  0.1269E-01  0.3122E-02  0.7133E-03  0.1106E-02  0.1101E-02  0.2022E-02
      0.447  0.7895E-01  0.3616E-02  0.9614E-03  0.1338E-01  0.3565E-02  0.8169E-03  0.1209E-02  0.1246E-02  0.2146E-02
      0.513  0.8074E-01  0.3886E-02  0.1009E-02  0.1399E-01  0.4045E-02  0.9316E-03  0.1311E-02  0.1398E-02  0.2247E-02
      0.578  0.8212E-01  0.4167E-02  0.1055E-02  0.1453E-01  0.4562E-02  0.1057E-02  0.1410E-02  0.1559E-02  0.2327E-02
      0.643  0.8309E-01  0.4459E-02  0.1099E-02  0.1499E-01  0.5117E-02  0.1194E-02  0.1507E-02  0.1728E-02  0.2384E-02
      0.709  0.7533E-01  0.4762E-02  0.1160E-02  0.1352E-01  0.5882E-02  0.1430E-02  0.1439E-02  0.2019E-02  0.1925E-02
      0.774  0.7342E-01  0.4926E-02  0.1178E-02  0.1327E-01  0.6412E-02  0.1633E-02  0.1459E-02  0.2231E-02  0.1824E-02
      0.839  0.7151E-01  0.5073E-02  0.1190E-02  0.1301E-01  0.6928E-02  0.1838E-02  0.1475E-02  0.2439E-02  0.1722E-02
      0.904  0.6961E-01  0.5204E-02  0.1197E-02  0.1274E-01  0.7428E-02  0.2045E-02  0.1490E-02  0.2644E-02  0.1619E-02
      0.970  0.6798E-01  0.5324E-02  0.1207E-02  0.1251E-01  0.7937E-02  0.2272E-02  0.1505E-02  0.2872E-02  0.1527E-02
      1.035  0.6730E-01  0.5449E-02  0.1246E-02  0.1247E-01  0.8524E-02  0.2580E-02  0.1527E-02  0.3206E-02  0.1480E-02
      1.100  0.6647E-01  0.5555E-02  0.1280E-02  0.1240E-01  0.9105E-02  0.2899E-02  0.1545E-02  0.3548E-02  0.1428E-02
      1.166  0.6549E-01  0.5643E-02  0.1308E-02  0.1229E-01  0.9679E-02  0.3229E-02  0.1559E-02  0.3899E-02  0.1372E-02
      1.231  0.6433E-01  0.5714E-02  0.1330E-02  0.1215E-01  0.1024E-01  0.3566E-02  0.1569E-02  0.4252E-02  0.1311E-02
      1.296  0.6039E-01  0.5930E-02  0.1308E-02  0.1150E-01  0.1158E-01  0.3966E-02  0.1634E-02  0.4633E-02  0.1103E-02
      1.362  0.5795E-01  0.6004E-02  0.1273E-02  0.1107E-01  0.1244E-01  0.4368E-02  0.1657E-02  0.5005E-02  0.9856E-03
      1.427  0.5563E-01  0.6062E-02  0.1235E-02  0.1065E-01  0.1329E-01  0.4793E-02  0.1673E-02  0.5403E-02  0.8729E-03
      1.492  0.7251E-01  0.6488E-02  0.1359E-02  0.1692E-01  0.1539E-01  0.5874E-02  0.3875E-02  0.6658E-02  0.6972E-02
      1.558  0.7663E-01  0.6635E-02  0.1371E-02  0.1879E-01  0.1667E-01  0.6573E-02  0.4854E-02  0.7395E-02  0.9502E-02
      1.623  0.8116E-01  0.6804E-02  0.1381E-02  0.2083E-01  0.1802E-01  0.7301E-02  0.5965E-02  0.8156E-02  0.1236E-01
      1.688  0.8610E-01  0.6993E-02  0.1392E-02  0.2304E-01  0.1943E-01  0.8059E-02  0.7207E-02  0.8942E-02  0.1556E-01
      1.754  0.8653E-01  0.7316E-02  0.1432E-02  0.2362E-01  0.2155E-01  0.9090E-02  0.8064E-02  0.1001E-01  0.1731E-01
      1.819  0.8813E-01  0.7583E-02  0.1452E-02  0.2447E-01  0.2383E-01  0.1052E-01  0.9071E-02  0.1137E-01  0.1956E-01
      1.884  0.9027E-01  0.7921E-02  0.1486E-02  0.2534E-01  0.2682E-01  0.1261E-01  0.1015E-01  0.1334E-01  0.2192E-01
      1.950  0.9190E-01  0.8276E-02  0.1482E-02  0.2613E-01  0.2977E-01  0.1465E-01  0.1130E-01  0.1518E-01  0.2440E-01
      2.015  0.9516E-01  0.8690E-02  0.1491E-02  0.2757E-01  0.3323E-01  0.1721E-01  0.1271E-01  0.1743E-01  0.2759E-01
      2.080  0.1002E+00  0.9020E-02  0.1570E-02  0.2865E-01  0.4117E-01  0.2479E-01  0.1397E-01  0.2458E-01  0.3105E-01
      2.146  0.9399E-01  0.7685E-02  0.1395E-02  0.2844E-01  0.3933E-01  0.2577E-01  0.1513E-01  0.2499E-01  0.3482E-01
      2.211  0.8962E-01  0.6563E-02  0.1245E-02  0.2859E-01  0.3914E-01  0.2795E-01  0.1652E-01  0.2652E-01  0.3883E-01
      2.276  0.7986E-01  0.8855E-02  0.7728E-03  0.3243E-01  0.2982E-01  0.1753E-01  0.1982E-01  0.1495E-01  0.4505E-01
      2.342  0.9702E-01  0.1196E-01  0.9926E-03  0.3983E-01  0.4323E-01  0.3857E-01  0.2619E-01  0.3350E-01  0.6335E-01
      2.407  0.1123E+00  0.1499E-01  0.1258E-02  0.4469E-01  0.5789E-01  0.7877E-01  0.3145E-01  0.6705E-01  0.8035E-01
      2.472  0.1565E+00  0.1980E-01  0.1762E-02  0.4786E-01  0.1316E+00  0.1628E+00  0.3735E-01  0.1651E+00  0.9892E-01
      2.538  0.1325E+00  0.1919E-01  0.1761E-02  0.4619E-01  0.1100E+00  0.9684E-01  0.5070E-01  0.8990E-01  0.1352E+00
      2.603  0.1602E+00  0.2025E-01  0.2406E-02  0.4618E-01  0.1272E+00  0.9265E-01  0.1295E+00  0.8397E-01  0.2282E+00
      2.668  0.1459E+00  0.2293E-01  0.2768E-02  0.4203E-01  0.1513E+00  0.8348E-01  0.1431E+00  0.8647E-01  0.2525E+00
      2.733  0.1416E+00  0.2404E-01  0.3208E-02  0.3522E-01  0.1740E+00  0.8169E-01  0.1772E+00  0.9296E-01  0.2472E+00
      2.799  0.1178E+00  0.1937E-01  0.3734E-02  0.2305E-01  0.1733E+00  0.7769E-01  0.2135E+00  0.9963E-01  0.1926E+00
      2.864  0.1150E+00  0.2145E-01  0.4790E-02  0.1793E-01  0.2003E+00  0.7811E-01  0.2518E+00  0.1151E+00  0.1803E+00
      2.929  0.1128E+00  0.2476E-01  0.5510E-02  0.1686E-01  0.2376E+00  0.6848E-01  0.2981E+00  0.1300E+00  0.1844E+00
      2.995  0.1103E+00  0.2785E-01  0.6136E-02  0.2066E-01  0.2709E+00  0.6775E-01  0.3443E+00  0.1420E+00  0.2083E+00
      3.060  0.9921E-01  0.2896E-01  0.7275E-02  0.2351E-01  0.3821E+00  0.1465E+00  0.3914E+00  0.2240E+00  0.2036E+00
      3.125  0.9291E-01  0.2819E-01  0.1121E-01  0.2525E-01  0.5480E+00  0.2597E+00  0.4297E+00  0.3093E+00  0.1625E+00
      3.191  0.8011E-01  0.3204E-01  0.1151E-01  0.2837E-01  0.6162E+00  0.2829E+00  0.4361E+00  0.3429E+00  0.1567E+00
      3.256  0.6671E-01  0.3479E-01  0.1265E-01  0.3113E-01  0.6429E+00  0.3195E+00  0.4602E+00  0.3656E+00  0.1620E+00
      3.321  0.5251E-01  0.3603E-01  0.1536E-01  0.3939E-01  0.6680E+00  0.3701E+00  0.6209E+00  0.4151E+00  0.2101E+00
      3.387  0.2753E-01  0.2993E-01  0.1493E-01  0.2970E-01  0.6089E+00  0.4094E+00  0.4504E+00  0.3600E+00  0.8714E-01
      3.452  0.3004E-02  0.2009E-01  0.1649E-01  0.1485E-01  0.3491E+00  0.4335E+00  0.1749E+00  0.3495E+00  0.4992E-01
      3.517  0.4947E-02  0.2606E-01  0.2053E-01  0.2053E-01  0.3758E+00  0.4878E+00  0.2856E+00  0.3732E+00  0.7703E-01
      3.583  0.6436E-02  0.3056E-01  0.2815E-01  0.3163E-01  0.3455E+00  0.5240E+00  0.5332E+00  0.4159E+00  0.1360E+00
      3.648  0.5904E-02  0.2195E-01  0.4184E-01  0.2848E-01  0.1683E+00  0.5818E+00  0.5350E+00  0.6020E+00  0.1497E+00
      3.713  0.3747E-02  0.1787E-01  0.2994E-01  0.2723E-01  0.8148E-01  0.4168E+00  0.5307E+00  0.3286E+00  0.1587E+00
      3.779  0.3089E-02  0.1687E-01  0.2439E-01  0.2479E-01  0.5969E-01  0.3399E+00  0.5333E+00  0.2255E+00  0.1525E+00
      3.844  0.4137E-02  0.1828E-01  0.2792E-01  0.2354E-01  0.7457E-01  0.9451E+00  0.5310E+00  0.2740E+00  0.1457E+00
      3.909  0.1158E-01  0.2552E-01  0.3487E-01  0.2239E-01  0.2430E+00  0.8949E+00  0.5134E+00  0.4426E+00  0.1468E+00
      3.975  0.1526E-01  0.3294E-01  0.3923E-01  0.2255E-01  0.3439E+00  0.8857E+00  0.4584E+00  0.4990E+00  0.1405E+00
      4.040  0.1697E-01  0.3483E-01  0.3876E-01  0.2244E-01  0.3921E+00  0.8871E+00  0.4165E+00  0.5817E+00  0.1406E+00
      4.105  0.2246E-01  0.4360E-01  0.6358E-01  0.2442E-01  0.7728E+00  0.7025E+00  0.5757E+00  0.9405E+00  0.2112E+00
      4.171  0.2420E-01  0.4202E-01  0.5378E-01  0.2354E-01  0.7682E+00  0.5643E+00  0.5378E+00  0.7499E+00  0.2729E+00
      4.236  0.3074E-01  0.4299E-01  0.5248E-01  0.2837E-01  0.8454E+00  0.6047E+00  0.4757E+00  0.7001E+00  0.3000E+00
      4.301  0.3446E-01  0.4888E-01  0.7051E-01  0.3610E-01  0.1048E+01  0.6042E+00  0.5630E+00  0.8041E+00  0.3131E+00
      4.367  0.3338E-01  0.4329E-01  0.5896E-01  0.3534E-01  0.1131E+01  0.6866E+00  0.7113E+00  0.7262E+00  0.6408E+00
      4.432  0.2260E-01  0.3985E-01  0.4308E-01  0.2030E-01  0.1518E+01  0.5676E+00  0.7682E+00  0.8719E+00  0.7557E+00
      4.497  0.2194E-01  0.2611E-01  0.5463E-01  0.2320E-01  0.1040E+01  0.4129E+00  0.4226E+00  0.9509E+00  0.4861E+00
      4.562  0.2297E-01  0.1516E-01  0.2324E-01  0.3043E-01  0.8282E+00  0.2632E+00  0.3347E+00  0.7813E+00  0.6080E+00
      4.628  0.1882E-01  0.1685E-01  0.1753E-01  0.2767E-01  0.5361E+00  0.3156E+00  0.3246E+00  0.7839E+00  0.6457E+00
      4.693  0.1346E-01  0.3378E-01  0.2555E-01  0.3501E-01  0.4450E+00  0.4774E+00  0.4009E+00  0.8576E+00  0.1015E+01
      4.758  0.1322E-01  0.2968E-01  0.2527E-01  0.2898E-01  0.4059E+00  0.5092E+00  0.4071E+00  0.9164E+00  0.1373E+01
      4.824  0.7257E-02  0.1737E-01  0.1290E-01  0.1541E-01  0.2988E+00  0.2704E+00  0.3399E+00  0.4326E+00  0.8923E+00
      4.889  0.7026E-02  0.1695E-01  0.1133E-01  0.1425E-01  0.2525E+00  0.2638E+00  0.3897E+00  0.4006E+00  0.1208E+01
      4.954  0.8977E-02  0.1742E-01  0.1229E-01  0.1533E-01  0.2915E+00  0.2927E+00  0.4783E+00  0.5718E+00  0.1793E+01
      5.020  0.2693E-01  0.1763E-01  0.1336E-01  0.3461E-01  0.3496E+00  0.3493E+00  0.4694E+00  0.6444E+00  0.2004E+01
      5.085  0.1183E-01  0.1578E-01  0.1163E-01  0.1561E-01  0.2314E+00  0.2684E+00  0.5032E+00  0.4384E+00  0.1560E+01
      5.150  0.1089E-01  0.1386E-01  0.9508E-02  0.1311E-01  0.2093E+00  0.2475E+00  0.7415E+00  0.4465E+00  0.1596E+01
      5.216  0.8277E-02  0.9870E-02  0.6327E-02  0.1087E-01  0.1545E+00  0.2053E+00  0.7240E+00  0.3934E+00  0.1305E+01
      5.281  0.8773E-02  0.6589E-02  0.4856E-02  0.1162E-01  0.1622E+00  0.2700E+00  0.6620E+00  0.6235E+00  0.1013E+01
      5.346  0.8546E-02  0.6035E-02  0.4903E-02  0.1156E-01  0.2875E+00  0.3719E+00  0.9443E+00  0.7694E+00  0.9021E+00
      5.412  0.6663E-02  0.5042E-02  0.4180E-02  0.9126E-02  0.2778E+00  0.4790E+00  0.9008E+00  0.7155E+00  0.7817E+00
      5.477  0.9065E-02  0.5844E-02  0.5124E-02  0.9879E-02  0.4061E+00  0.9645E+00  0.1066E+01  0.7669E+00  0.8123E+00
      5.542  0.8843E-02  0.5702E-02  0.5940E-02  0.9980E-02  0.4162E+00  0.1140E+01  0.8732E+00  0.8385E+00  0.8203E+00
      5.608  0.7569E-02  0.4692E-02  0.5239E-02  0.7431E-02  0.4218E+00  0.1842E+01  0.7107E+00  0.9364E+00  0.8357E+00
      5.673  0.1186E-01  0.4217E-02  0.3660E-02  0.6217E-02  0.7423E+00  0.2915E+01  0.8749E+00  0.1044E+01  0.8013E+00
      5.738  0.1416E-01  0.7795E-02  0.5227E-02  0.8956E-02  0.4656E+00  0.1610E+01  0.4018E+00  0.5193E+00  0.1362E+00
      5.804  0.2909E-01  0.1081E-01  0.6831E-02  0.2413E-01  0.2874E+00  0.1887E+00  0.2335E+00  0.7010E-01  0.3932E-01
      5.869  0.2470E-01  0.9430E-02  0.5757E-02  0.2145E-01  0.2069E+00  0.5456E-01  0.1604E+00  0.4525E-01  0.2788E-01
      5.934  0.2134E-01  0.8689E-02  0.4831E-02  0.1716E-01  0.1876E+00  0.2495E-01  0.1446E+00  0.2869E-01  0.1817E-01
      6.000  0.2047E-01  0.5758E-02  0.1969E-02  0.1495E-01  0.1676E+00  0.1982E-01  0.1239E+00  0.2183E-01  0.1651E-01
      6.065  0.2072E-01  0.5525E-02  0.1778E-02  0.1544E-01  0.1548E+00  0.1619E-01  0.1097E+00  0.1970E-01  0.1652E-01
      6.130  0.2104E-01  0.5364E-02  0.1637E-02  0.1603E-01  0.1437E+00  0.1304E-01  0.9720E-01  0.1819E-01  0.1684E-01
      6.196  0.2331E-01  0.5925E-02  0.1577E-02  0.1735E-01  0.1493E+00  0.1038E-01  0.9731E-01  0.1744E-01  0.1755E-01
      6.261  0.2287E-01  0.5578E-02  0.1479E-02  0.1776E-01  0.1339E+00  0.8277E-02  0.8242E-01  0.1769E-01  0.1866E-01
      6.326  0.2238E-01  0.6823E-02  0.2083E-02  0.2134E-01  0.1056E+00  0.7314E-02  0.5588E-01  0.1890E-01  0.2210E-01
      6.391  0.2263E-01  0.7924E-02  0.2644E-02  0.2263E-01  0.1013E+00  0.6066E-02  0.5282E-01  0.1885E-01  0.2257E-01
      6.457  0.2277E-01  0.8888E-02  0.3317E-02  0.2356E-01  0.9719E-01  0.4895E-02  0.5027E-01  0.1815E-01  0.2236E-01
      6.522  0.2449E-01  0.1037E-01  0.4042E-02  0.2575E-01  0.9926E-01  0.4049E-02  0.5022E-01  0.1852E-01  0.2375E-01
      6.587  0.2519E-01  0.1169E-01  0.4760E-02  0.2693E-01  0.9864E-01  0.3969E-02  0.4955E-01  0.1874E-01  0.2443E-01
      6.653  0.2580E-01  0.1306E-01  0.5479E-02  0.2803E-01  0.9785E-01  0.3970E-02  0.4886E-01  0.1890E-01  0.2501E-01
      6.718  0.2632E-01  0.1447E-01  0.6200E-02  0.2905E-01  0.9690E-01  0.4050E-02  0.4817E-01  0.1900E-01  0.2550E-01
      6.783  0.2676E-01  0.1594E-01  0.6922E-02  0.2999E-01  0.9577E-01  0.4211E-02  0.4747E-01  0.1904E-01  0.2590E-01
      6.849  0.3035E-01  0.3688E-01  0.2362E-01  0.4386E-01  0.1089E+00  0.8441E-02  0.6112E-01  0.2282E-01  0.3375E-01
      6.914  0.3406E-01  0.4113E-01  0.2653E-01  0.4973E-01  0.1230E+00  0.8994E-02  0.6997E-01  0.2170E-01  0.3389E-01
      6.979  0.3829E-01  0.3056E-01  0.1272E-01  0.4341E-01  0.1344E+00  0.5012E-02  0.7199E-01  0.1531E-01  0.2592E-01
      7.045  0.2398E-01  0.1561E-01  0.6264E-02  0.2565E-01  0.7124E-01  0.3041E-02  0.3536E-01  0.1228E-01  0.1936E-01
      7.110  0.2396E-01  0.1607E-01  0.6458E-02  0.2481E-01  0.6889E-01  0.3125E-02  0.3423E-01  0.1175E-01  0.1859E-01
      7.175  0.2386E-01  0.1652E-01  0.6655E-02  0.2388E-01  0.6639E-01  0.3214E-02  0.3306E-01  0.1117E-01  0.1773E-01
      7.241  0.2502E-01  0.1747E-01  0.7627E-02  0.2564E-01  0.6444E-01  0.3377E-02  0.3228E-01  0.1080E-01  0.1770E-01
      7.306  0.2474E-01  0.1797E-01  0.7974E-02  0.2441E-01  0.6170E-01  0.3488E-02  0.3102E-01  0.1012E-01  0.1660E-01
      7.371  0.2469E-01  0.1860E-01  0.8338E-02  0.2355E-01  0.6018E-01  0.3599E-02  0.3040E-01  0.9463E-02  0.1566E-01
      7.437  0.2465E-01  0.1930E-01  0.8730E-02  0.2280E-01  0.5902E-01  0.3707E-02  0.2998E-01  0.8847E-02  0.1481E-01
      7.502  0.2464E-01  0.2008E-01  0.9150E-02  0.2217E-01  0.5820E-01  0.3814E-02  0.2975E-01  0.8272E-02  0.1406E-01
      7.567  0.2502E-01  0.2106E-01  0.9754E-02  0.2154E-01  0.5838E-01  0.4040E-02  0.3001E-01  0.7876E-02  0.1334E-01