    4    4   99    1
  0.1182420E+02  0.3616407E-09  0.3616407E-09  0.3616407E-09  0.5000000E-15
  1.000000000000000E-004
  CAR 
 unknown system                          
   44   20   26
 
  0.6250000E-01  0.6250000E-01  0.6250000E-01  0.1562500E-01
   1       -1.732142
   2        2.603339
   3        2.603340
   4        2.603340
   5        3.038410
   6        3.038410
   7        3.038410
   8        4.316309
   9        4.371175
  10        4.371175
  11        5.133547
  12        5.133547
  13        5.632574
  14        5.632574
  15        5.632574
  16        5.654279
  17        5.654279
  18        5.654279
  19        5.800408
  20        5.800408
  21        5.800408
  22        8.756376
  23        8.756376
  24        8.756376
  25       14.707140
  26       14.707138
 
  0.1875000E+00  0.6250000E-01  0.6250000E-01  0.4687500E-01
   1       -1.362936
   2        2.572555
   3        2.766435
   4        2.766435
   5        3.131844
   6        3.139177
   7        3.139177
   8        4.220853
   9        4.446791
  10        4.449699
  11        5.044471
  12        5.178188
  13        5.180561
  14        5.180561
  15        5.458481
  16        5.520924
  17        5.520924
  18        5.537744
  19        5.717386
  20        5.791636
  21        5.791636
  22        7.200270
  23        9.533338
  24        9.533338
  25       14.884652
  26       14.884633
 
  0.3125000E+00  0.6250000E-01  0.6250000E-01  0.4687500E-01
   1       -0.645161
   2        2.305937
   3        3.035179
   4        3.035179
   5        3.306445
   6        3.341908
   7        3.341908
   8        4.034561
   9        4.588846
  10        4.596036
  11        4.596036
  12        4.602615
  13        4.912075
  14        5.029775
  15        5.260879
  16        5.319380
  17        5.319380
  18        5.336167
  19        5.607809
  20        5.788320
  21        5.788320
  22        5.879197
  23       10.711311
  24       10.711311
  25       15.201967
  26       15.201715
 
  0.4375000E+00  0.6250000E-01  0.6250000E-01  0.4687500E-01
   1        0.361634
   2        1.486268
   3        3.273338
   4        3.273338
   5        3.538295
   6        3.644103
   7        3.644103
   8        3.793981
   9        4.072023
  10        4.072023
  11        4.626039
  12        4.644681
  13        4.818995
  14        4.965787
  15        5.076612
  16        5.133615
  17        5.133615
  18        5.286235
  19        5.369724
  20        5.489889
  21        5.787328
  22        5.787328
  23       12.101415
  24       12.101415
  25       13.691263
  26       13.691263
 
  0.1875000E+00  0.1875000E+00  0.6250000E-01  0.4687500E-01
   1       -1.001448
   2        2.753395
   3        2.753395
   4        2.910322
   5        3.223484
   6        3.224705
   7        3.224705
   8        4.172534
   9        4.484774
  10        4.485215
  11        4.928793
  12        4.936126
  13        4.936126
  14        5.032014
  15        5.189653
  16        5.398136
  17        5.456059
  18        5.456059
  19        5.704740
  20        5.704740
  21        5.725639
  22        7.919262
  23        7.919262
  24       10.175651
  25       14.919383
  26       15.267876
 
  0.3125000E+00  0.1875000E+00  0.6250000E-01  0.9375000E-01
   1       -0.300864
   2        2.522681
   3        3.056323
   4        3.151403
   5        3.381737
   6        3.384797
   7        3.409738
   8        4.029678
   9        4.386350
  10        4.502505
  11        4.531377
  12        4.574940
  13        4.609128
  14        4.963540
  15        5.231600
  16        5.264892
  17        5.296235
  18        5.307992
  19        5.570638
  20        5.672591
  21        5.678741
  22        6.513312
  23        8.904893
  24       11.218892
  25       13.151054
  26       15.542828
 
  0.4375000E+00  0.1875000E+00  0.6250000E-01  0.9375000E-01
   1        0.675279
   2        1.752588
   3        3.354212
   4        3.406577
   5        3.546629
   6        3.595306
   7        3.646494
   8        3.822895
   9        3.954877
  10        4.082402
  11        4.403140
  12        4.477196
  13        4.791506
  14        5.018330
  15        5.063392
  16        5.087249
  17        5.116990
  18        5.341823
  19        5.489689
  20        5.659058
  21        5.659910
  22        5.785595
  23       10.062472
  24       11.390319
  25       12.665486
  26       14.143713
 
  0.3125000E+00  0.3125000E+00  0.6250000E-01  0.4687500E-01
   1        0.360012
   2        2.886348
   3        2.886348
   4        3.300103
   5        3.493928
   6        3.541979
   7        3.541979
   8        3.979449
   9        4.163910
  10        4.163910
  11        4.309355
  12        4.478927
  13        4.663748
  14        4.933213
  15        5.090388
  16        5.163972
  17        5.163972
  18        5.490926
  19        5.490926
  20        5.501430
  21        5.556814
  22        7.304467
  23        7.304467
  24       11.030201
  25       12.315195
  26       16.032526
 
  0.4375000E+00  0.3125000E+00  0.6250000E-01  0.9375000E-01
   1        1.261588
   2        2.221083
   3        3.240385
   4        3.378557
   5        3.639720
   6        3.706565
   7        3.731659
   8        3.863349
   9        3.902648
  10        4.066832
  11        4.188938
  12        4.362020
  13        4.769959
  14        4.951645
  15        4.977714
  16        5.019011
  17        5.019116
  18        5.255289
  19        5.457689
  20        5.479231
  21        5.808231
  22        6.315483
  23        8.266473
  24        9.493885
  25       13.497931
  26       14.963905
 
  0.4375000E+00  0.4375000E+00  0.6250000E-01  0.4687500E-01
   1        2.015062
   2        2.742189
   3        2.742189
   4        3.136367
   5        3.856944
   6        3.856944
   7        3.875429
   8        3.883691
   9        3.998256
  10        4.043116
  11        4.043116
  12        4.248166
  13        4.747858
  14        4.850981
  15        4.850981
  16        4.852115
  17        5.059159
  18        5.234822
  19        5.234822
  20        5.318592
  21        6.272049
  22        7.014133
  23        7.014133
  24        8.027150
  25       14.669273
  26       16.082814
 
  0.1875000E+00  0.1875000E+00  0.1875000E+00  0.1562500E-01
   1       -0.650460
   2        2.896302
   3        2.896302
   4        2.896302
   5        3.308770
   6        3.308770
   7        3.308770
   8        4.148573
   9        4.494660
  10        4.494660
  11        4.721844
  12        4.721844
  13        4.721844
  14        5.130840
  15        5.130840
  16        5.238613
  17        5.238613
  18        5.238613
  19        5.745885
  20        5.745885
  21        5.745885
  22        8.440437
  23        8.440437
  24        8.440437
  25       15.533641
  26       15.530904
 
  0.3125000E+00  0.1875000E+00  0.1875000E+00  0.4687500E-01
   1        0.025951
   2        2.671509
   3        3.119408
   4        3.119408
   5        3.468283
   6        3.468283
   7        3.475472
   8        4.052270
   9        4.370827
  10        4.370827
  11        4.431478
  12        4.512740
  13        4.543507
  14        5.025670
  15        5.097969
  16        5.097969
  17        5.104122
  18        5.287222
  19        5.698499
  20        5.698499
  21        5.710316
  22        6.867550
  23        9.270988
  24        9.270988
  25       13.622736
  26       13.622736
 
  0.4375000E+00  0.1875000E+00  0.1875000E+00  0.4687500E-01
   1        0.956658
   2        1.961035
   3        3.337542
   4        3.337542
   5        3.578123
   6        3.578123
   7        3.684111
   8        3.886924
   9        4.130202
  10        4.130202
  11        4.332384
  12        4.432762
  13        4.651493
  14        4.818289
  15        4.980925
  16        4.980925
  17        5.311539
  18        5.458089
  19        5.608490
  20        5.650540
  21        5.650540
  22        5.856360
  23       10.207309
  24       10.207309
  25       12.148380
  26       12.148380
 
  0.3125000E+00  0.3125000E+00  0.1875000E+00  0.4687500E-01
   1        0.644870
   2        2.880194
   3        2.880194
   4        3.152862
   5        3.623728
   6        3.662030
   7        3.662030
   8        4.064186
   9        4.233793
  10        4.233793
  11        4.323324
  12        4.473431
  13        4.525267
  14        4.900961
  15        4.900961
  16        4.910070
  17        5.150730
  18        5.435775
  19        5.656858
  20        5.669462
  21        5.669462
  22        7.512906
  23        7.512906
  24        9.760666
  25       11.910410
  26       14.423959
 
  0.4375000E+00  0.3125000E+00  0.1875000E+00  0.9375000E-01
   1        1.464286
   2        2.294696
   3        3.044582
   4        3.130898
   5        3.770557
   6        3.809795
   7        3.881777
   8        4.018138
   9        4.187044
  10        4.235035
  11        4.272219
  12        4.369827
  13        4.574722
  14        4.709548
  15        4.800678
  16        4.811940
  17        5.294031
  18        5.538206
  19        5.592552
  20        5.594765
  21        5.723863
  22        6.314499
  23        8.374919
  24        9.387100
  25       11.725128
  26       12.838994
 
  0.4375000E+00  0.4375000E+00  0.1875000E+00  0.4687500E-01
   1        2.073539
   2        2.625303
   3        2.625303
   4        2.895072
   5        3.982029
   6        4.081021
   7        4.081022
   8        4.166939
   9        4.221037
  10        4.221037
  11        4.288079
  12        4.330198
  13        4.547377
  14        4.643093
  15        4.643093
  16        4.662230
  17        5.295678
  18        5.452727
  19        5.452727
  20        5.489889
  21        6.181674
  22        6.994105
  23        6.994105
  24        8.014130
  25       12.599973
  26       13.902735
 
  0.3125000E+00  0.3125000E+00  0.3125000E+00  0.1562500E-01
   1        1.162983
   2        2.848841
   3        2.848841
   4        2.848841
   5        3.863392
   6        3.863392
   7        3.863392
   8        4.232978
   9        4.354960
  10        4.354960
  11        4.354960
  12        4.447128
  13        4.447128
  14        4.705672
  15        4.705672
  16        4.705672
  17        5.375436
  18        5.375436
  19        5.712638
  20        5.712638
  21        5.712638
  22        7.912038
  23        7.912038
  24        7.912038
  25       12.575031
  26       12.575031
 
  0.4375000E+00  0.3125000E+00  0.3125000E+00  0.4687500E-01
   1        1.797746
   2        2.392144
   3        2.819753
   4        2.819753
   5        3.987616
   6        3.987616
   7        4.141462
   8        4.350881
   9        4.386201
  10        4.391924
  11        4.452472
  12        4.506902
  13        4.506902
  14        4.543022
  15        4.610388
  16        4.610388
  17        5.562462
  18        5.597429
  19        5.664424
  20        5.664424
  21        5.681281
  22        6.455596
  23        8.345082
  24        8.345082
  25       11.385814
  26       11.385814
 
  0.4375000E+00  0.4375000E+00  0.3125000E+00  0.4687500E-01
   1        2.159269
   2        2.497432
   3        2.497432
   4        2.634114
   5        4.139616
   6        4.198890
   7        4.198890
   8        4.331154
   9        4.399054
  10        4.458935
  11        4.458935
  12        4.479431
  13        4.740628
  14        4.740628
  15        4.776002
  16        4.779167
  17        5.507219
  18        5.630991
  19        5.630991
  20        5.634074
  21        5.987597
  22        6.934144
  23        6.934144
  24        7.724763
  25       11.244567
  26       12.139976
 
  0.4375000E+00  0.4375000E+00  0.4375000E+00  0.1562500E-01
   1        2.268112
   2        2.421593
   3        2.421594
   4        2.421594
   5        4.270309
   6        4.270309
   7        4.270309
   8        4.334353
   9        4.334353
  10        4.362827
  11        4.362827
  12        4.362827
  13        5.249232
  14        5.249232
  15        5.249232
  16        5.647754
  17        5.647754
  18        5.692227
  19        5.692227
  20        5.692227
  21        5.739637
  22        6.833552
  23        6.833552
  24        6.833553
  25       11.113720
  26       11.113721
