Automatically generated mesh
      20
Reciprocal lattice
    0.06250000000000    0.06250000000000    0.06250000000000             8
    0.18750000000000    0.06250000000000    0.06250000000000            24
    0.31250000000000    0.06250000000000    0.06250000000000            24
    0.43750000000000    0.06250000000000    0.06250000000000            24
    0.18750000000000    0.18750000000000    0.06250000000000            24
    0.31250000000000    0.18750000000000    0.06250000000000            48
    0.43750000000000    0.18750000000000    0.06250000000000            48
    0.31250000000000    0.31250000000000    0.06250000000000            24
    0.43750000000000    0.31250000000000    0.06250000000000            48
    0.43750000000000    0.43750000000000    0.06250000000000            24
    0.18750000000000    0.18750000000000    0.18750000000000             8
    0.31250000000000    0.18750000000000    0.18750000000000            24
    0.43750000000000    0.18750000000000    0.18750000000000            24
    0.31250000000000    0.31250000000000    0.18750000000000            24
    0.43750000000000    0.31250000000000    0.18750000000000            48
    0.43750000000000    0.43750000000000    0.18750000000000            24
    0.31250000000000    0.31250000000000    0.31250000000000             8
    0.43750000000000    0.31250000000000    0.31250000000000            24
    0.43750000000000    0.43750000000000    0.31250000000000            24
    0.43750000000000    0.43750000000000    0.43750000000000             8
Tetrahedra
       229    0.00032552083333
        24         1         2         2         5
        18         2         2         5         5
        12         2         5         5        11
        12         2         3         5         6
        24         2         5         5         6
        12         5         5         6        11
        24         3         5         6         6
        24         5         6         6        12
        24         5         6        11        12
        12         3         4         6         7
        24         3         6         6         7
        12         6         6         7        12
        24         4         6         7         7
        12         6         7         7        13
        12         6         7        12        13
        30         4         4         7         7
        36         4         7         7         7
        12         7         7         7        13
         6         7         7        13        13
        18         1         1         2         2
        24         1         2         2         2
        12         2         2         2         5
        12         5         6         8        11
        12         6         8        11        12
        12         8        11        12        14
        12         6         7         9        12
        12         6         8         9        12
        12         8         9        12        14
        12         7         9        12        13
        12         9        12        13        15
        12         9        12        14        15
        12         7         7         9        13
        12         7         9         9        13
        12         9         9        13        15
        12         7         9        13        13
        12         9        13        13        15
        12         9        13        15        15
        12         6         7         8        13
        12         7         8         9        13
        12         8         9        13        15
        12         6         8        12        13
        12         8        12        13        14
        12         8        13        14        15
        12         6         6         8        12
        12         6         8        12        14
        12         6        11        12        12
        12         6        12        12        14
        12         2         3         5        11
        12         3         5         6        11
        12         3         6        11        12
        12         2         2         3         5
        12         2         3         3         5
        12         3         3         5         6
        12         2         3         5         5
        12         3         5         5         6
        12         8         9        10        14
        12         9        10        14        15
        12        10        14        15        16
        24         9         9        10        15
        12         9        10        10        15
        12        10        10        15        16
        12         9        10        15        15
        12        10        15        15        16
        12        10        15        16        16
        12         8         9         9        15
        12         9        10        15        16
        12         8         9        14        15
        12         9        14        15        15
        24         9        15        15        16
        12         6         7         8        14
        12         7         8         9        14
        12         7         9        14        15
        12         6         7        12        14
        12         7        12        13        14
        12         7        13        14        15
        12         3         4         6        12
        12         4         6         7        12
        12         4         7        12        13
        12         3         3         4         6
        12         3         4         4         6
        12         4         4         6         7
        12         3         4         6         6
        12         4         6         6         7
        12        10        10        10        16
        12        10        10        16        16
        12        10        16        16        16
        12         9         9        10        16
        12         9        10        10        16
        12         9        10        16        16
        12         9         9        15        16
        12         9        15        16        16
        12         7         7         9        15
        12         7         9         9        15
        12         7         9        15        15
        12         7         7        13        15
        12         7        13        13        15
        12         7        13        15        15
        12         4         4         7        13
        12         4         7         7        13
        12         4         7        13        13
        24         4         4         4         7
        12         8         9        10        16
        12         8         9        15        16
        12         8        14        15        16
        12         6         7         9        15
        12         6         8         9        15
        12         6         8        14        15
        12         6         7        13        15
        12         6        12        13        15
        12         6        12        14        15
        12         3         4         7        13
        12         3         6         7        13
        12         3         6        12        13
        12         3         4         4         7
        12         3         3         4         7
        12         3         3         6         7
        12         3         4         7         7
        12         3         6         7         7
        12         5         6         8        14
        12         5         6        12        14
        12         5        11        12        14
        12         2         3         6        12
        12         2         5         6        12
        12         2         5        11        12
        12         2         3         3         6
        12         2         2         3         6
        12         2         2         5         6
        12         2         3         6         6
        12         2         5         6         6
        12         1         2         5        11
        12         1         1         2         5
        12         1         2         5         5
        12         1         1         1         2
        12        11        12        12        14
        12        12        12        14        14
        12        12        14        14        17
        12        12        13        14        15
        12        12        14        14        15
        12        14        14        15        17
        12        13        14        15        15
        24        14        15        15        18
        24        14        15        17        18
         6        13        13        15        15
        12        13        15        15        15
        12        15        15        15        18
         6        15        15        18        18
         6         5         5         6         6
        12         5         6         6         6
        12         6         6         6         8
         6         6         6         8         8
        12        14        15        16        17
        12        15        16        17        18
        12        16        17        18        19
        24        15        15        16        18
        12        15        16        16        18
        12        16        16        18        19
        12        15        16        18        18
        12        16        18        18        19
        12        16        18        19        19
        12        15        16        18        19
        12        15        17        18        18
        24        15        18        18        19
        12        12        13        14        17
        12        13        14        15        17
        12        13        15        17        18
        12         6         6         7         8
        12         6         7         7         8
        12         7         7         8         9
        12         6         7         8         8
        12         7         8         8         9
        12         7         8         9         9
        12        16        16        16        19
        12        16        16        19        19
        12        16        19        19        19
        12        15        15        16        19
        12        15        16        16        19
        12        15        16        19        19
        12        15        15        18        19
        12        15        18        19        19
        12        13        13        15        18
        12        13        15        15        18
        12        13        15        18        18
        24         7         7         7         9
        24         7         7         9         9
        24         7         9         9         9
        12        14        15        16        19
        12        14        15        18        19
        12        14        17        18        19
        12        12        13        15        18
        12        12        14        15        18
        12        12        14        17        18
        12         6         7         7         9
        12         6         6         7         9
        12         6         6         8         9
        12         6         7         9         9
        12         6         8         9         9
        12         6         8         8         9
        12        11        12        14        17
        12         5         6         6         8
        12         5         5         6         8
        12         5         6         8         8
        12         2         2         2         3
        12         2         2         3         3
        12         2         3         3         3
        12        17        18        18        19
        18        18        18        19        19
        24        18        19        19        20
        12        18        19        19        19
        24        19        19        19        20
        18        19        19        20        20
         6         8         8         9         9
        12         8         9         9         9
        36         9         9         9        10
        30         9         9        10        10
        12        19        20        20        20
        12        18        18        19        20
        12        18        19        20        20
        24         9        10        10        10
        12        17        18        19        20
        12         8         9         9        10
        12         8         8         9        10
        12         8         9        10        10
        12         3         3         3         4
        12         3         3         4         4
        12         3         4         4         4
         6        20        20        20        20
        18        10        10        10        10
        18         4         4         4         4
         6         1         1         1         1
