 vasp.5.3.3 18Dez12 (build Apr  3 2013 12:00:03) complex                        
  
 executed on             LinuxIFC date 2017.10.02  13:54:54
 serial version


--------------------------------------------------------------------------------------------------------


 INCAR:
 POTCAR:    PAW_PBE Cu 22Jun2005                  
 POTCAR:    PAW_PBE Cu 22Jun2005                  
   VRHFIN =Cu: d10 p1                                                           
   LEXCH  = PE                                                                  
   EATOM  =  1390.9808 eV,  102.2342 Ry                                         
                                                                                
   TITEL  = PAW_PBE Cu 22Jun2005                                                
   LULTRA =        F    use ultrasoft PP ?                                      
   IUNSCR =        1    unscreen: 0-lin 1-nonlin 2-no                           
   RPACOR =    2.000    partial core radius                                     
   POMASS =   63.546; ZVAL   =   11.000    mass and valenz                      
   RCORE  =    2.300    outmost cutoff radius                                   
   RWIGS  =    2.200; RWIGS  =    1.164    wigner-seitz radius (au A)           
   ENMAX  =  295.446; ENMIN  =  221.585 eV                                      
   ICORE  =        3    local potential                                         
   LCOR   =        T    correct aug charges                                     
   LPAW   =        T    paw PP                                                  
   EAUG   =  586.980                                                            
   DEXC   =    0.000                                                            
   RMAX   =    2.344    core radius for proj-oper                               
   RAUG   =    1.300    factor for augmentation sphere                          
   RDEP   =    2.302    radius for radial grids                                 
   RDEPT  =    1.771    core radius for aug-charge                              
                                                                                
   Atomic configuration                                                         
    9 entries                                                                   
     n  l   j            E        occ.                                          
     1  0  0.50     -8850.2468   2.0000                                         
     2  0  0.50     -1062.3498   2.0000                                         
     2  1  1.50      -916.8226   6.0000                                         
     3  0  0.50      -114.6929   2.0000                                         
     3  1  1.50       -72.1325   6.0000                                         
     3  2  2.50        -5.0394  10.0000                                         
     4  0  0.50        -4.6097   1.0000                                         
     4  1  0.50        -4.0817   0.0000                                         
     4  3  2.50        -1.3606   0.0000                                         
   Description                                                                  
     l       E           TYP  RCUT    TYP  RCUT                                 
     2     -5.0393973     23  2.200                                             
     2     10.8846608     23  2.200                                             
     0     -4.6097109     23  2.200                                             
     0      8.2520465     23  2.200                                             
     1     -2.7211652     23  2.200                                             
     1     21.7055443     23  2.200                                             
     3      2.7211652     23  2.300                                             
  local pseudopotential read in
  partial core-charges read in
  partial kinetic energy density read in
  atomic valenz-charges read in
  non local Contribution for L=           2  read in
    real space projection operators read in
  non local Contribution for L=           2  read in
    real space projection operators read in
  non local Contribution for L=           0  read in
    real space projection operators read in
  non local Contribution for L=           0  read in
    real space projection operators read in
  non local Contribution for L=           1  read in
    real space projection operators read in
  non local Contribution for L=           1  read in
    real space projection operators read in
    PAW grid and wavefunctions read in
 
   number of l-projection  operators is LMAX  =           6
   number of lm-projection operators is LMMAX =          18
 

 ----------------------------------------------------------------------------- 
|                                                                             |
|  ADVICE TO THIS USER RUNNING 'VASP/VAMP'   (HEAR YOUR MASTER'S VOICE ...):  |
|                                                                             |
|      You have a (more or less) 'small supercell' and for smaller cells      |
|      it is recommended  to use the reciprocal-space projection scheme!      |
|      The real space optimization is not  efficient for small cells and it   |
|      is also less accurate ...                                              |
|      Therefore set LREAL=.FALSE. in the  INCAR file                         |
|                                                                             |
 ----------------------------------------------------------------------------- 

 Optimization of the real space projectors (new method)

 maximal supplied QI-value         = 16.25
 optimisation between [QCUT,QGAM] = [ 11.54, 23.24] = [ 37.28,151.24] Ry 
 Optimized for a Real-space Cutoff    1.53 Angstroem

   l    n(q)    QCUT    max X(q) W(low)/X(q) W(high)/X(q)  e(spline) 
   2     10    11.539     4.610    0.96E-04    0.13E-03    0.19E-06
   2     10    11.539     8.522    0.16E-03    0.21E-03    0.28E-06
   0     11    11.539    51.609    0.45E-04    0.31E-04    0.11E-06
   0     11    11.539    27.747    0.39E-04    0.29E-04    0.10E-06
   1     10    11.539    20.408    0.70E-05    0.38E-04    0.18E-06
   1     10    11.539    13.425    0.66E-05    0.34E-04    0.17E-06
  PAW_PBE Cu 22Jun2005                  :
 energy of atom  1       EATOM=-1390.9808
 kinetic energy error for atom=    0.0037 (will be added to EATOM!!)
 
 
 POSCAR: Cu4                                     
  positions in direct lattice
  No initial velocities read in
 exchange correlation table for  LEXCH =        8
   RHO(1)=    0.500       N(1)  =     2000
   RHO(2)=  100.500       N(2)  =     4000
 


--------------------------------------------------------------------------------------------------------


 ion  position               nearest neighbor table
   1  0.000  0.000  0.000-   2 2.56   3 2.56   4 2.56   2 2.56   3 2.56   2 2.56   4 2.56   2 2.56
                             3 2.56   4 2.56   3 2.56   4 2.56
   2  0.000  0.500  0.500-   1 2.56   3 2.56   4 2.56   1 2.56   4 2.56   1 2.56   3 2.56   1 2.56
                             3 2.56   4 2.56   4 2.56   3 2.56
   3  0.500  0.000  0.500-   1 2.56   2 2.56   4 2.56   1 2.56   4 2.56   2 2.56   4 2.56   4 2.56
                             1 2.56   2 2.56   1 2.56   2 2.56
   4  0.500  0.500  0.000-   1 2.56   2 2.56   3 2.56   2 2.56   3 2.56   1 2.56   3 2.56   3 2.56
                             1 2.56   2 2.56   2 2.56   1 2.56
 
  LATTYP: Found a simple cubic cell.
 ALAT       =     3.6164070000
  
  Lattice vectors:
  
 A1 = (   3.6164070000,   0.0000000000,   0.0000000000)
 A2 = (   0.0000000000,   3.6164070000,   0.0000000000)
 A3 = (   0.0000000000,   0.0000000000,   3.6164070000)


Analysis of symmetry for initial positions (statically):
=====================================================================
 Subroutine PRICEL returns following result:
 
  LATTYP: Found a face centered cubic cell.
 ALAT       =     3.6164070000
  
  Lattice vectors:
  
 A1 = (   1.8082035000,   1.8082035000,   0.0000000000)
 A2 = (   1.8082035000,   0.0000000000,  -1.8082035000)
 A3 = (   0.0000000000,   1.8082035000,  -1.8082035000)
 
   4 primitive cells build up your supercell.
 

 Routine SETGRP: Setting up the symmetry group for a 
 simple cubic supercell.


 Subroutine GETGRP returns: Found 48 space group operations
 (whereof 48 operations were pure point group operations)
 out of a pool of 48 trial point group operations.


The static configuration has the point symmetry O_h .


Analysis of symmetry for dynamics (positions and initial velocities):
=====================================================================
 Subroutine PRICEL returns following result:
 
  LATTYP: Found a face centered cubic cell.
 ALAT       =     3.6164070000
  
  Lattice vectors:
  
 A1 = (   1.8082035000,   1.8082035000,   0.0000000000)
 A2 = (   1.8082035000,   0.0000000000,  -1.8082035000)
 A3 = (   0.0000000000,   1.8082035000,  -1.8082035000)
 
   4 primitive cells build up your supercell.
 

 Routine SETGRP: Setting up the symmetry group for a 
 simple cubic supercell.


 Subroutine GETGRP returns: Found 48 space group operations
 (whereof 48 operations were pure point group operations)
 out of a pool of 48 trial point group operations.


The dynamic configuration has the point symmetry O_h .


 irot  :   1
 --------------------------------------------------------------------
 isymop:   1   0   0
           0   1   0
           0   0   1

 gtrans:     0.0000000     0.0000000    -0.0000000

 ptrans:     0.0000000     0.0000000     0.0000000
 rotmap:
 (   1->   1)  (   2->   2)  (   3->   3)  (   4->   4) 

 ptrans:     0.5000000     0.5000000     0.0000000
 rotmap:
 (   1->   4)  (   2->   3)  (   3->   2)  (   4->   1) 

 ptrans:     0.5000000     0.0000000     0.5000000
 rotmap:
 (   1->   3)  (   2->   4)  (   3->   1)  (   4->   2) 

 ptrans:     0.0000000     0.5000000     0.5000000
 rotmap:
 (   1->   2)  (   2->   1)  (   3->   4)  (   4->   3) 


 irot  :   2
 --------------------------------------------------------------------
 isymop:  -1   0   0
           0  -1   0
           0   0  -1

 gtrans:     0.0000000     0.0000000    -0.0000000

 ptrans:     0.0000000     0.0000000     0.0000000
 rotmap:
 (   1->   1)  (   2->   2)  (   3->   3)  (   4->   4) 

 ptrans:     0.5000000     0.5000000     0.0000000
 rotmap:
 (   1->   4)  (   2->   3)  (   3->   2)  (   4->   1) 

 ptrans:     0.5000000     0.0000000     0.5000000
 rotmap:
 (   1->   3)  (   2->   4)  (   3->   1)  (   4->   2) 

 ptrans:     0.0000000     0.5000000     0.5000000
 rotmap:
 (   1->   2)  (   2->   1)  (   3->   4)  (   4->   3) 


 irot  :   3
 --------------------------------------------------------------------
 isymop:   0   0   1
           1   0   0
           0   1   0

 gtrans:     0.0000000     0.0000000    -0.0000000

 ptrans:     0.0000000     0.0000000     0.0000000
 rotmap:
 (   1->   1)  (   2->   3)  (   3->   4)  (   4->   2) 

 ptrans:     0.5000000     0.5000000     0.0000000
 rotmap:
 (   1->   4)  (   2->   2)  (   3->   1)  (   4->   3) 

 ptrans:     0.5000000     0.0000000     0.5000000
 rotmap:
 (   1->   3)  (   2->   1)  (   3->   2)  (   4->   4) 

 ptrans:     0.0000000     0.5000000     0.5000000
 rotmap:
 (   1->   2)  (   2->   4)  (   3->   3)  (   4->   1) 


 irot  :   4
 --------------------------------------------------------------------
 isymop:   0   0  -1
          -1   0   0
           0  -1   0

 gtrans:     0.0000000     0.0000000    -0.0000000

 ptrans:     0.0000000     0.0000000     0.0000000
 rotmap:
 (   1->   1)  (   2->   3)  (   3->   4)  (   4->   2) 

 ptrans:     0.5000000     0.5000000     0.0000000
 rotmap:
 (   1->   4)  (   2->   2)  (   3->   1)  (   4->   3) 

 ptrans:     0.5000000     0.0000000     0.5000000
 rotmap:
 (   1->   3)  (   2->   1)  (   3->   2)  (   4->   4) 

 ptrans:     0.0000000     0.5000000     0.5000000
 rotmap:
 (   1->   2)  (   2->   4)  (   3->   3)  (   4->   1) 


 irot  :   5
 --------------------------------------------------------------------
 isymop:   0   1   0
           0   0   1
           1   0   0

 gtrans:     0.0000000     0.0000000    -0.0000000

 ptrans:     0.0000000     0.0000000     0.0000000
 rotmap:
 (   1->   1)  (   2->   4)  (   3->   2)  (   4->   3) 

 ptrans:     0.5000000     0.5000000     0.0000000
 rotmap:
 (   1->   4)  (   2->   1)  (   3->   3)  (   4->   2) 

 ptrans:     0.5000000     0.0000000     0.5000000
 rotmap:
 (   1->   3)  (   2->   2)  (   3->   4)  (   4->   1) 

 ptrans:     0.0000000     0.5000000     0.5000000
 rotmap:
 (   1->   2)  (   2->   3)  (   3->   1)  (   4->   4) 


 irot  :   6
 --------------------------------------------------------------------
 isymop:   0  -1   0
           0   0  -1
          -1   0   0

 gtrans:     0.0000000     0.0000000    -0.0000000

 ptrans:     0.0000000     0.0000000     0.0000000
 rotmap:
 (   1->   1)  (   2->   4)  (   3->   2)  (   4->   3) 

 ptrans:     0.5000000     0.5000000     0.0000000
 rotmap:
 (   1->   4)  (   2->   1)  (   3->   3)  (   4->   2) 

 ptrans:     0.5000000     0.0000000     0.5000000
 rotmap:
 (   1->   3)  (   2->   2)  (   3->   4)  (   4->   1) 

 ptrans:     0.0000000     0.5000000     0.5000000
 rotmap:
 (   1->   2)  (   2->   3)  (   3->   1)  (   4->   4) 


 irot  :   7
 --------------------------------------------------------------------
 isymop:   0  -1   0
           1   0   0
           0   0   1

 gtrans:     0.0000000     0.0000000    -0.0000000

 ptrans:     0.0000000     0.0000000     0.0000000
 rotmap:
 (   1->   1)  (   2->   3)  (   3->   2)  (   4->   4) 

 ptrans:     0.5000000     0.5000000     0.0000000
 rotmap:
 (   1->   4)  (   2->   2)  (   3->   3)  (   4->   1) 

 ptrans:     0.5000000     0.0000000     0.5000000
 rotmap:
 (   1->   3)  (   2->   1)  (   3->   4)  (   4->   2) 

 ptrans:     0.0000000     0.5000000     0.5000000
 rotmap:
 (   1->   2)  (   2->   4)  (   3->   1)  (   4->   3) 


 irot  :   8
 --------------------------------------------------------------------
 isymop:   0   1   0
          -1   0   0
           0   0  -1

 gtrans:     0.0000000     0.0000000    -0.0000000

 ptrans:     0.0000000     0.0000000     0.0000000
 rotmap:
 (   1->   1)  (   2->   3)  (   3->   2)  (   4->   4) 

 ptrans:     0.5000000     0.5000000     0.0000000
 rotmap:
 (   1->   4)  (   2->   2)  (   3->   3)  (   4->   1) 

 ptrans:     0.5000000     0.0000000     0.5000000
 rotmap:
 (   1->   3)  (   2->   1)  (   3->   4)  (   4->   2) 

 ptrans:     0.0000000     0.5000000     0.5000000
 rotmap:
 (   1->   2)  (   2->   4)  (   3->   1)  (   4->   3) 


 irot  :   9
 --------------------------------------------------------------------
 isymop:  -1   0   0
           0   0   1
           0   1   0

 gtrans:     0.0000000     0.0000000    -0.0000000

 ptrans:     0.0000000     0.0000000     0.0000000
 rotmap:
 (   1->   1)  (   2->   2)  (   3->   4)  (   4->   3) 

 ptrans:     0.5000000     0.5000000     0.0000000
 rotmap:
 (   1->   4)  (   2->   3)  (   3->   1)  (   4->   2) 

 ptrans:     0.5000000     0.0000000     0.5000000
 rotmap:
 (   1->   3)  (   2->   4)  (   3->   2)  (   4->   1) 

 ptrans:     0.0000000     0.5000000     0.5000000
 rotmap:
 (   1->   2)  (   2->   1)  (   3->   3)  (   4->   4) 


 irot  :  10
 --------------------------------------------------------------------
 isymop:   1   0   0
           0   0  -1
           0  -1   0

 gtrans:     0.0000000     0.0000000    -0.0000000

 ptrans:     0.0000000     0.0000000     0.0000000
 rotmap:
 (   1->   1)  (   2->   2)  (   3->   4)  (   4->   3) 

 ptrans:     0.5000000     0.5000000     0.0000000
 rotmap:
 (   1->   4)  (   2->   3)  (   3->   1)  (   4->   2) 

 ptrans:     0.5000000     0.0000000     0.5000000
 rotmap:
 (   1->   3)  (   2->   4)  (   3->   2)  (   4->   1) 

 ptrans:     0.0000000     0.5000000     0.5000000
 rotmap:
 (   1->   2)  (   2->   1)  (   3->   3)  (   4->   4) 


 irot  :  11
 --------------------------------------------------------------------
 isymop:   0   0  -1
           0   1   0
           1   0   0

 gtrans:     0.0000000     0.0000000    -0.0000000

 ptrans:     0.0000000     0.0000000     0.0000000
 rotmap:
 (   1->   1)  (   2->   4)  (   3->   3)  (   4->   2) 

 ptrans:     0.5000000     0.5000000     0.0000000
 rotmap:
 (   1->   4)  (   2->   1)  (   3->   2)  (   4->   3) 

 ptrans:     0.5000000     0.0000000     0.5000000
 rotmap:
 (   1->   3)  (   2->   2)  (   3->   1)  (   4->   4) 

 ptrans:     0.0000000     0.5000000     0.5000000
 rotmap:
 (   1->   2)  (   2->   3)  (   3->   4)  (   4->   1) 


 irot  :  12
 --------------------------------------------------------------------
 isymop:   0   0   1
           0  -1   0
          -1   0   0

 gtrans:     0.0000000     0.0000000    -0.0000000

 ptrans:     0.0000000     0.0000000     0.0000000
 rotmap:
 (   1->   1)  (   2->   4)  (   3->   3)  (   4->   2) 

 ptrans:     0.5000000     0.5000000     0.0000000
 rotmap:
 (   1->   4)  (   2->   1)  (   3->   2)  (   4->   3) 

 ptrans:     0.5000000     0.0000000     0.5000000
 rotmap:
 (   1->   3)  (   2->   2)  (   3->   1)  (   4->   4) 

 ptrans:     0.0000000     0.5000000     0.5000000
 rotmap:
 (   1->   2)  (   2->   3)  (   3->   4)  (   4->   1) 


 irot  :  13
 --------------------------------------------------------------------
 isymop:  -1   0   0
           0  -1   0
           0   0   1

 gtrans:     0.0000000     0.0000000    -0.0000000

 ptrans:     0.0000000     0.0000000     0.0000000
 rotmap:
 (   1->   1)  (   2->   2)  (   3->   3)  (   4->   4) 

 ptrans:     0.5000000     0.5000000     0.0000000
 rotmap:
 (   1->   4)  (   2->   3)  (   3->   2)  (   4->   1) 

 ptrans:     0.5000000     0.0000000     0.5000000
 rotmap:
 (   1->   3)  (   2->   4)  (   3->   1)  (   4->   2) 

 ptrans:     0.0000000     0.5000000     0.5000000
 rotmap:
 (   1->   2)  (   2->   1)  (   3->   4)  (   4->   3) 


 irot  :  14
 --------------------------------------------------------------------
 isymop:   1   0   0
           0   1   0
           0   0  -1

 gtrans:     0.0000000     0.0000000    -0.0000000

 ptrans:     0.0000000     0.0000000     0.0000000
 rotmap:
 (   1->   1)  (   2->   2)  (   3->   3)  (   4->   4) 

 ptrans:     0.5000000     0.5000000     0.0000000
 rotmap:
 (   1->   4)  (   2->   3)  (   3->   2)  (   4->   1) 

 ptrans:     0.5000000     0.0000000     0.5000000
 rotmap:
 (   1->   3)  (   2->   4)  (   3->   1)  (   4->   2) 

 ptrans:     0.0000000     0.5000000     0.5000000
 rotmap:
 (   1->   2)  (   2->   1)  (   3->   4)  (   4->   3) 


 irot  :  15
 --------------------------------------------------------------------
 isymop:   0   0  -1
          -1   0   0
           0   1   0

 gtrans:     0.0000000     0.0000000    -0.0000000

 ptrans:     0.0000000     0.0000000     0.0000000
 rotmap:
 (   1->   1)  (   2->   3)  (   3->   4)  (   4->   2) 

 ptrans:     0.5000000     0.5000000     0.0000000
 rotmap:
 (   1->   4)  (   2->   2)  (   3->   1)  (   4->   3) 

 ptrans:     0.5000000     0.0000000     0.5000000
 rotmap:
 (   1->   3)  (   2->   1)  (   3->   2)  (   4->   4) 

 ptrans:     0.0000000     0.5000000     0.5000000
 rotmap:
 (   1->   2)  (   2->   4)  (   3->   3)  (   4->   1) 


 irot  :  16
 --------------------------------------------------------------------
 isymop:   0   0   1
           1   0   0
           0  -1   0

 gtrans:     0.0000000     0.0000000    -0.0000000

 ptrans:     0.0000000     0.0000000     0.0000000
 rotmap:
 (   1->   1)  (   2->   3)  (   3->   4)  (   4->   2) 

 ptrans:     0.5000000     0.5000000     0.0000000
 rotmap:
 (   1->   4)  (   2->   2)  (   3->   1)  (   4->   3) 

 ptrans:     0.5000000     0.0000000     0.5000000
 rotmap:
 (   1->   3)  (   2->   1)  (   3->   2)  (   4->   4) 

 ptrans:     0.0000000     0.5000000     0.5000000
 rotmap:
 (   1->   2)  (   2->   4)  (   3->   3)  (   4->   1) 


 irot  :  17
 --------------------------------------------------------------------
 isymop:   0  -1   0
           0   0  -1
           1   0   0

 gtrans:     0.0000000     0.0000000    -0.0000000

 ptrans:     0.0000000     0.0000000     0.0000000
 rotmap:
 (   1->   1)  (   2->   4)  (   3->   2)  (   4->   3) 

 ptrans:     0.5000000     0.5000000     0.0000000
 rotmap:
 (   1->   4)  (   2->   1)  (   3->   3)  (   4->   2) 

 ptrans:     0.5000000     0.0000000     0.5000000
 rotmap:
 (   1->   3)  (   2->   2)  (   3->   4)  (   4->   1) 

 ptrans:     0.0000000     0.5000000     0.5000000
 rotmap:
 (   1->   2)  (   2->   3)  (   3->   1)  (   4->   4) 


 irot  :  18
 --------------------------------------------------------------------
 isymop:   0   1   0
           0   0   1
          -1   0   0

 gtrans:     0.0000000     0.0000000    -0.0000000

 ptrans:     0.0000000     0.0000000     0.0000000
 rotmap:
 (   1->   1)  (   2->   4)  (   3->   2)  (   4->   3) 

 ptrans:     0.5000000     0.5000000     0.0000000
 rotmap:
 (   1->   4)  (   2->   1)  (   3->   3)  (   4->   2) 

 ptrans:     0.5000000     0.0000000     0.5000000
 rotmap:
 (   1->   3)  (   2->   2)  (   3->   4)  (   4->   1) 

 ptrans:     0.0000000     0.5000000     0.5000000
 rotmap:
 (   1->   2)  (   2->   3)  (   3->   1)  (   4->   4) 


 irot  :  19
 --------------------------------------------------------------------
 isymop:   0   1   0
          -1   0   0
           0   0   1

 gtrans:     0.0000000     0.0000000    -0.0000000

 ptrans:     0.0000000     0.0000000     0.0000000
 rotmap:
 (   1->   1)  (   2->   3)  (   3->   2)  (   4->   4) 

 ptrans:     0.5000000     0.5000000     0.0000000
 rotmap:
 (   1->   4)  (   2->   2)  (   3->   3)  (   4->   1) 

 ptrans:     0.5000000     0.0000000     0.5000000
 rotmap:
 (   1->   3)  (   2->   1)  (   3->   4)  (   4->   2) 

 ptrans:     0.0000000     0.5000000     0.5000000
 rotmap:
 (   1->   2)  (   2->   4)  (   3->   1)  (   4->   3) 


 irot  :  20
 --------------------------------------------------------------------
 isymop:   0  -1   0
           1   0   0
           0   0  -1

 gtrans:     0.0000000     0.0000000    -0.0000000

 ptrans:     0.0000000     0.0000000     0.0000000
 rotmap:
 (   1->   1)  (   2->   3)  (   3->   2)  (   4->   4) 

 ptrans:     0.5000000     0.5000000     0.0000000
 rotmap:
 (   1->   4)  (   2->   2)  (   3->   3)  (   4->   1) 

 ptrans:     0.5000000     0.0000000     0.5000000
 rotmap:
 (   1->   3)  (   2->   1)  (   3->   4)  (   4->   2) 

 ptrans:     0.0000000     0.5000000     0.5000000
 rotmap:
 (   1->   2)  (   2->   4)  (   3->   1)  (   4->   3) 


 irot  :  21
 --------------------------------------------------------------------
 isymop:   1   0   0
           0   0  -1
           0   1   0

 gtrans:     0.0000000     0.0000000    -0.0000000

 ptrans:     0.0000000     0.0000000     0.0000000
 rotmap:
 (   1->   1)  (   2->   2)  (   3->   4)  (   4->   3) 

 ptrans:     0.5000000     0.5000000     0.0000000
 rotmap:
 (   1->   4)  (   2->   3)  (   3->   1)  (   4->   2) 

 ptrans:     0.5000000     0.0000000     0.5000000
 rotmap:
 (   1->   3)  (   2->   4)  (   3->   2)  (   4->   1) 

 ptrans:     0.0000000     0.5000000     0.5000000
 rotmap:
 (   1->   2)  (   2->   1)  (   3->   3)  (   4->   4) 


 irot  :  22
 --------------------------------------------------------------------
 isymop:  -1   0   0
           0   0   1
           0  -1   0

 gtrans:     0.0000000     0.0000000    -0.0000000

 ptrans:     0.0000000     0.0000000     0.0000000
 rotmap:
 (   1->   1)  (   2->   2)  (   3->   4)  (   4->   3) 

 ptrans:     0.5000000     0.5000000     0.0000000
 rotmap:
 (   1->   4)  (   2->   3)  (   3->   1)  (   4->   2) 

 ptrans:     0.5000000     0.0000000     0.5000000
 rotmap:
 (   1->   3)  (   2->   4)  (   3->   2)  (   4->   1) 

 ptrans:     0.0000000     0.5000000     0.5000000
 rotmap:
 (   1->   2)  (   2->   1)  (   3->   3)  (   4->   4) 


 irot  :  23
 --------------------------------------------------------------------
 isymop:   0   0   1
           0  -1   0
           1   0   0

 gtrans:     0.0000000     0.0000000    -0.0000000

 ptrans:     0.0000000     0.0000000     0.0000000
 rotmap:
 (   1->   1)  (   2->   4)  (   3->   3)  (   4->   2) 

 ptrans:     0.5000000     0.5000000     0.0000000
 rotmap:
 (   1->   4)  (   2->   1)  (   3->   2)  (   4->   3) 

 ptrans:     0.5000000     0.0000000     0.5000000
 rotmap:
 (   1->   3)  (   2->   2)  (   3->   1)  (   4->   4) 

 ptrans:     0.0000000     0.5000000     0.5000000
 rotmap:
 (   1->   2)  (   2->   3)  (   3->   4)  (   4->   1) 


 irot  :  24
 --------------------------------------------------------------------
 isymop:   0   0  -1
           0   1   0
          -1   0   0

 gtrans:     0.0000000     0.0000000    -0.0000000

 ptrans:     0.0000000     0.0000000     0.0000000
 rotmap:
 (   1->   1)  (   2->   4)  (   3->   3)  (   4->   2) 

 ptrans:     0.5000000     0.5000000     0.0000000
 rotmap:
 (   1->   4)  (   2->   1)  (   3->   2)  (   4->   3) 

 ptrans:     0.5000000     0.0000000     0.5000000
 rotmap:
 (   1->   3)  (   2->   2)  (   3->   1)  (   4->   4) 

 ptrans:     0.0000000     0.5000000     0.5000000
 rotmap:
 (   1->   2)  (   2->   3)  (   3->   4)  (   4->   1) 


 irot  :  25
 --------------------------------------------------------------------
 isymop:   0   0   1
          -1   0   0
           0  -1   0

 gtrans:     0.0000000     0.0000000    -0.0000000

 ptrans:     0.0000000     0.0000000     0.0000000
 rotmap:
 (   1->   1)  (   2->   3)  (   3->   4)  (   4->   2) 

 ptrans:     0.5000000     0.5000000     0.0000000
 rotmap:
 (   1->   4)  (   2->   2)  (   3->   1)  (   4->   3) 

 ptrans:     0.5000000     0.0000000     0.5000000
 rotmap:
 (   1->   3)  (   2->   1)  (   3->   2)  (   4->   4) 

 ptrans:     0.0000000     0.5000000     0.5000000
 rotmap:
 (   1->   2)  (   2->   4)  (   3->   3)  (   4->   1) 


 irot  :  26
 --------------------------------------------------------------------
 isymop:   0   0  -1
           1   0   0
           0   1   0

 gtrans:     0.0000000     0.0000000    -0.0000000

 ptrans:     0.0000000     0.0000000     0.0000000
 rotmap:
 (   1->   1)  (   2->   3)  (   3->   4)  (   4->   2) 

 ptrans:     0.5000000     0.5000000     0.0000000
 rotmap:
 (   1->   4)  (   2->   2)  (   3->   1)  (   4->   3) 

 ptrans:     0.5000000     0.0000000     0.5000000
 rotmap:
 (   1->   3)  (   2->   1)  (   3->   2)  (   4->   4) 

 ptrans:     0.0000000     0.5000000     0.5000000
 rotmap:
 (   1->   2)  (   2->   4)  (   3->   3)  (   4->   1) 


 irot  :  27
 --------------------------------------------------------------------
 isymop:   0   1   0
           0   0  -1
          -1   0   0

 gtrans:     0.0000000     0.0000000    -0.0000000

 ptrans:     0.0000000     0.0000000     0.0000000
 rotmap:
 (   1->   1)  (   2->   4)  (   3->   2)  (   4->   3) 

 ptrans:     0.5000000     0.5000000     0.0000000
 rotmap:
 (   1->   4)  (   2->   1)  (   3->   3)  (   4->   2) 

 ptrans:     0.5000000     0.0000000     0.5000000
 rotmap:
 (   1->   3)  (   2->   2)  (   3->   4)  (   4->   1) 

 ptrans:     0.0000000     0.5000000     0.5000000
 rotmap:
 (   1->   2)  (   2->   3)  (   3->   1)  (   4->   4) 


 irot  :  28
 --------------------------------------------------------------------
 isymop:   0  -1   0
           0   0   1
           1   0   0

 gtrans:     0.0000000     0.0000000    -0.0000000

 ptrans:     0.0000000     0.0000000     0.0000000
 rotmap:
 (   1->   1)  (   2->   4)  (   3->   2)  (   4->   3) 

 ptrans:     0.5000000     0.5000000     0.0000000
 rotmap:
 (   1->   4)  (   2->   1)  (   3->   3)  (   4->   2) 

 ptrans:     0.5000000     0.0000000     0.5000000
 rotmap:
 (   1->   3)  (   2->   2)  (   3->   4)  (   4->   1) 

 ptrans:     0.0000000     0.5000000     0.5000000
 rotmap:
 (   1->   2)  (   2->   3)  (   3->   1)  (   4->   4) 


 irot  :  29
 --------------------------------------------------------------------
 isymop:   1   0   0
           0  -1   0
           0   0  -1

 gtrans:     0.0000000     0.0000000    -0.0000000

 ptrans:     0.0000000     0.0000000     0.0000000
 rotmap:
 (   1->   1)  (   2->   2)  (   3->   3)  (   4->   4) 

 ptrans:     0.5000000     0.5000000     0.0000000
 rotmap:
 (   1->   4)  (   2->   3)  (   3->   2)  (   4->   1) 

 ptrans:     0.5000000     0.0000000     0.5000000
 rotmap:
 (   1->   3)  (   2->   4)  (   3->   1)  (   4->   2) 

 ptrans:     0.0000000     0.5000000     0.5000000
 rotmap:
 (   1->   2)  (   2->   1)  (   3->   4)  (   4->   3) 


 irot  :  30
 --------------------------------------------------------------------
 isymop:  -1   0   0
           0   1   0
           0   0   1

 gtrans:     0.0000000     0.0000000    -0.0000000

 ptrans:     0.0000000     0.0000000     0.0000000
 rotmap:
 (   1->   1)  (   2->   2)  (   3->   3)  (   4->   4) 

 ptrans:     0.5000000     0.5000000     0.0000000
 rotmap:
 (   1->   4)  (   2->   3)  (   3->   2)  (   4->   1) 

 ptrans:     0.5000000     0.0000000     0.5000000
 rotmap:
 (   1->   3)  (   2->   4)  (   3->   1)  (   4->   2) 

 ptrans:     0.0000000     0.5000000     0.5000000
 rotmap:
 (   1->   2)  (   2->   1)  (   3->   4)  (   4->   3) 


 irot  :  31
 --------------------------------------------------------------------
 isymop:   0   0   1
           0   1   0
          -1   0   0

 gtrans:     0.0000000     0.0000000    -0.0000000

 ptrans:     0.0000000     0.0000000     0.0000000
 rotmap:
 (   1->   1)  (   2->   4)  (   3->   3)  (   4->   2) 

 ptrans:     0.5000000     0.5000000     0.0000000
 rotmap:
 (   1->   4)  (   2->   1)  (   3->   2)  (   4->   3) 

 ptrans:     0.5000000     0.0000000     0.5000000
 rotmap:
 (   1->   3)  (   2->   2)  (   3->   1)  (   4->   4) 

 ptrans:     0.0000000     0.5000000     0.5000000
 rotmap:
 (   1->   2)  (   2->   3)  (   3->   4)  (   4->   1) 


 irot  :  32
 --------------------------------------------------------------------
 isymop:   0   0  -1
           0  -1   0
           1   0   0

 gtrans:     0.0000000     0.0000000    -0.0000000

 ptrans:     0.0000000     0.0000000     0.0000000
 rotmap:
 (   1->   1)  (   2->   4)  (   3->   3)  (   4->   2) 

 ptrans:     0.5000000     0.5000000     0.0000000
 rotmap:
 (   1->   4)  (   2->   1)  (   3->   2)  (   4->   3) 

 ptrans:     0.5000000     0.0000000     0.5000000
 rotmap:
 (   1->   3)  (   2->   2)  (   3->   1)  (   4->   4) 

 ptrans:     0.0000000     0.5000000     0.5000000
 rotmap:
 (   1->   2)  (   2->   3)  (   3->   4)  (   4->   1) 


 irot  :  33
 --------------------------------------------------------------------
 isymop:   0   1   0
           1   0   0
           0   0  -1

 gtrans:     0.0000000     0.0000000    -0.0000000

 ptrans:     0.0000000     0.0000000     0.0000000
 rotmap:
 (   1->   1)  (   2->   3)  (   3->   2)  (   4->   4) 

 ptrans:     0.5000000     0.5000000     0.0000000
 rotmap:
 (   1->   4)  (   2->   2)  (   3->   3)  (   4->   1) 

 ptrans:     0.5000000     0.0000000     0.5000000
 rotmap:
 (   1->   3)  (   2->   1)  (   3->   4)  (   4->   2) 

 ptrans:     0.0000000     0.5000000     0.5000000
 rotmap:
 (   1->   2)  (   2->   4)  (   3->   1)  (   4->   3) 


 irot  :  34
 --------------------------------------------------------------------
 isymop:   0  -1   0
          -1   0   0
           0   0   1

 gtrans:     0.0000000     0.0000000    -0.0000000

 ptrans:     0.0000000     0.0000000     0.0000000
 rotmap:
 (   1->   1)  (   2->   3)  (   3->   2)  (   4->   4) 

 ptrans:     0.5000000     0.5000000     0.0000000
 rotmap:
 (   1->   4)  (   2->   2)  (   3->   3)  (   4->   1) 

 ptrans:     0.5000000     0.0000000     0.5000000
 rotmap:
 (   1->   3)  (   2->   1)  (   3->   4)  (   4->   2) 

 ptrans:     0.0000000     0.5000000     0.5000000
 rotmap:
 (   1->   2)  (   2->   4)  (   3->   1)  (   4->   3) 


 irot  :  35
 --------------------------------------------------------------------
 isymop:   1   0   0
           0   0   1
           0  -1   0

 gtrans:     0.0000000     0.0000000    -0.0000000

 ptrans:     0.0000000     0.0000000     0.0000000
 rotmap:
 (   1->   1)  (   2->   2)  (   3->   4)  (   4->   3) 

 ptrans:     0.5000000     0.5000000     0.0000000
 rotmap:
 (   1->   4)  (   2->   3)  (   3->   1)  (   4->   2) 

 ptrans:     0.5000000     0.0000000     0.5000000
 rotmap:
 (   1->   3)  (   2->   4)  (   3->   2)  (   4->   1) 

 ptrans:     0.0000000     0.5000000     0.5000000
 rotmap:
 (   1->   2)  (   2->   1)  (   3->   3)  (   4->   4) 


 irot  :  36
 --------------------------------------------------------------------
 isymop:  -1   0   0
           0   0  -1
           0   1   0

 gtrans:     0.0000000     0.0000000    -0.0000000

 ptrans:     0.0000000     0.0000000     0.0000000
 rotmap:
 (   1->   1)  (   2->   2)  (   3->   4)  (   4->   3) 

 ptrans:     0.5000000     0.5000000     0.0000000
 rotmap:
 (   1->   4)  (   2->   3)  (   3->   1)  (   4->   2) 

 ptrans:     0.5000000     0.0000000     0.5000000
 rotmap:
 (   1->   3)  (   2->   4)  (   3->   2)  (   4->   1) 

 ptrans:     0.0000000     0.5000000     0.5000000
 rotmap:
 (   1->   2)  (   2->   1)  (   3->   3)  (   4->   4) 


 irot  :  37
 --------------------------------------------------------------------
 isymop:   0  -1   0
           0   0   1
          -1   0   0

 gtrans:     0.0000000     0.0000000    -0.0000000

 ptrans:     0.0000000     0.0000000     0.0000000
. rotmap:
 (   1->   1)  (   2->   4)  (   3->   2)  (   4->   3) 

 ptrans:     0.5000000     0.5000000     0.0000000
 rotmap:
 (   1->   4)  (   2->   1)  (   3->   3)  (   4->   2) 

 ptrans:     0.5000000     0.0000000     0.5000000
 rotmap:
 (   1->   3)  (   2->   2)  (   3->   4)  (   4->   1) 

 ptrans:     0.0000000     0.5000000     0.5000000
 rotmap:
 (   1->   2)  (   2->   3)  (   3->   1)  (   4->   4) 


 irot  :  38
 --------------------------------------------------------------------
 isymop:   0   1   0
           0   0  -1
           1   0   0

 gtrans:     0.0000000     0.0000000    -0.0000000

 ptrans:     0.0000000     0.0000000     0.0000000
 rotmap:
 (   1->   1)  (   2->   4)  (   3->   2)  (   4->   3) 

 ptrans:     0.5000000     0.5000000     0.0000000
 rotmap:
 (   1->   4)  (   2->   1)  (   3->   3)  (   4->   2) 

 ptrans:     0.5000000     0.0000000     0.5000000
 rotmap:
 (   1->   3)  (   2->   2)  (   3->   4)  (   4->   1) 

 ptrans:     0.0000000     0.5000000     0.5000000
 rotmap:
 (   1->   2)  (   2->   3)  (   3->   1)  (   4->   4) 


 irot  :  39
 --------------------------------------------------------------------
 isymop:  -1   0   0
           0   1   0
           0   0  -1

 gtrans:     0.0000000     0.0000000    -0.0000000

 ptrans:     0.0000000     0.0000000     0.0000000
 rotmap:
 (   1->   1)  (   2->   2)  (   3->   3)  (   4->   4) 

 ptrans:     0.5000000     0.5000000     0.0000000
 rotmap:
 (   1->   4)  (   2->   3)  (   3->   2)  (   4->   1) 

 ptrans:     0.5000000     0.0000000     0.5000000
 rotmap:
 (   1->   3)  (   2->   4)  (   3->   1)  (   4->   2) 

 ptrans:     0.0000000     0.5000000     0.5000000
 rotmap:
 (   1->   2)  (   2->   1)  (   3->   4)  (   4->   3) 


 irot  :  40
 --------------------------------------------------------------------
 isymop:   1   0   0
           0  -1   0
           0   0   1

 gtrans:     0.0000000     0.0000000    -0.0000000

 ptrans:     0.0000000     0.0000000     0.0000000
 rotmap:
 (   1->   1)  (   2->   2)  (   3->   3)  (   4->   4) 

 ptrans:     0.5000000     0.5000000     0.0000000
 rotmap:
 (   1->   4)  (   2->   3)  (   3->   2)  (   4->   1) 

 ptrans:     0.5000000     0.0000000     0.5000000
 rotmap:
 (   1->   3)  (   2->   4)  (   3->   1)  (   4->   2) 

 ptrans:     0.0000000     0.5000000     0.5000000
 rotmap:
 (   1->   2)  (   2->   1)  (   3->   4)  (   4->   3) 


 irot  :  41
 --------------------------------------------------------------------
 isymop:   0   0  -1
           1   0   0
           0  -1   0

 gtrans:     0.0000000     0.0000000    -0.0000000

 ptrans:     0.0000000     0.0000000     0.0000000
 rotmap:
 (   1->   1)  (   2->   3)  (   3->   4)  (   4->   2) 

 ptrans:     0.5000000     0.5000000     0.0000000
 rotmap:
 (   1->   4)  (   2->   2)  (   3->   1)  (   4->   3) 

 ptrans:     0.5000000     0.0000000     0.5000000
 rotmap:
 (   1->   3)  (   2->   1)  (   3->   2)  (   4->   4) 

 ptrans:     0.0000000     0.5000000     0.5000000
 rotmap:
 (   1->   2)  (   2->   4)  (   3->   3)  (   4->   1) 


 irot  :  42
 --------------------------------------------------------------------
 isymop:   0   0   1
          -1   0   0
           0   1   0

 gtrans:     0.0000000     0.0000000    -0.0000000

 ptrans:     0.0000000     0.0000000     0.0000000
 rotmap:
 (   1->   1)  (   2->   3)  (   3->   4)  (   4->   2) 

 ptrans:     0.5000000     0.5000000     0.0000000
 rotmap:
 (   1->   4)  (   2->   2)  (   3->   1)  (   4->   3) 

 ptrans:     0.5000000     0.0000000     0.5000000
 rotmap:
 (   1->   3)  (   2->   1)  (   3->   2)  (   4->   4) 

 ptrans:     0.0000000     0.5000000     0.5000000
 rotmap:
 (   1->   2)  (   2->   4)  (   3->   3)  (   4->   1) 


 irot  :  43
 --------------------------------------------------------------------
 isymop:  -1   0   0
           0   0  -1
           0  -1   0

 gtrans:     0.0000000     0.0000000    -0.0000000

 ptrans:     0.0000000     0.0000000     0.0000000
 rotmap:
 (   1->   1)  (   2->   2)  (   3->   4)  (   4->   3) 

 ptrans:     0.5000000     0.5000000     0.0000000
 rotmap:
 (   1->   4)  (   2->   3)  (   3->   1)  (   4->   2) 

 ptrans:     0.5000000     0.0000000     0.5000000
 rotmap:
 (   1->   3)  (   2->   4)  (   3->   2)  (   4->   1) 

 ptrans:     0.0000000     0.5000000     0.5000000
 rotmap:
 (   1->   2)  (   2->   1)  (   3->   3)  (   4->   4) 


 irot  :  44
 --------------------------------------------------------------------
 isymop:   1   0   0
           0   0   1
           0   1   0

 gtrans:     0.0000000     0.0000000    -0.0000000

 ptrans:     0.0000000     0.0000000     0.0000000
 rotmap:
 (   1->   1)  (   2->   2)  (   3->   4)  (   4->   3) 

 ptrans:     0.5000000     0.5000000     0.0000000
 rotmap:
 (   1->   4)  (   2->   3)  (   3->   1)  (   4->   2) 

 ptrans:     0.5000000     0.0000000     0.5000000
 rotmap:
 (   1->   3)  (   2->   4)  (   3->   2)  (   4->   1) 

 ptrans:     0.0000000     0.5000000     0.5000000
 rotmap:
 (   1->   2)  (   2->   1)  (   3->   3)  (   4->   4) 


 irot  :  45
 --------------------------------------------------------------------
 isymop:   0  -1   0
          -1   0   0
           0   0  -1

 gtrans:     0.0000000     0.0000000    -0.0000000

 ptrans:     0.0000000     0.0000000     0.0000000
 rotmap:
 (   1->   1)  (   2->   3)  (   3->   2)  (   4->   4) 

 ptrans:     0.5000000     0.5000000     0.0000000
 rotmap:
 (   1->   4)  (   2->   2)  (   3->   3)  (   4->   1) 

 ptrans:     0.5000000     0.0000000     0.5000000
 rotmap:
 (   1->   3)  (   2->   1)  (   3->   4)  (   4->   2) 

 ptrans:     0.0000000     0.5000000     0.5000000
 rotmap:
 (   1->   2)  (   2->   4)  (   3->   1)  (   4->   3) 


 irot  :  46
 --------------------------------------------------------------------
 isymop:   0   1   0
           1   0   0
           0   0   1

 gtrans:     0.0000000     0.0000000    -0.0000000

 ptrans:     0.0000000     0.0000000     0.0000000
 rotmap:
 (   1->   1)  (   2->   3)  (   3->   2)  (   4->   4) 

 ptrans:     0.5000000     0.5000000     0.0000000
 rotmap:
 (   1->   4)  (   2->   2)  (   3->   3)  (   4->   1) 

 ptrans:     0.5000000     0.0000000     0.5000000
 rotmap:
 (   1->   3)  (   2->   1)  (   3->   4)  (   4->   2) 

 ptrans:     0.0000000     0.5000000     0.5000000
 rotmap:
 (   1->   2)  (   2->   4)  (   3->   1)  (   4->   3) 


 irot  :  47
 --------------------------------------------------------------------
 isymop:   0   0  -1
           0  -1   0
          -1   0   0

 gtrans:     0.0000000     0.0000000    -0.0000000

 ptrans:     0.0000000     0.0000000     0.0000000
 rotmap:
 (   1->   1)  (   2->   4)  (   3->   3)  (   4->   2) 

 ptrans:     0.5000000     0.5000000     0.0000000
 rotmap:
 (   1->   4)  (   2->   1)  (   3->   2)  (   4->   3) 

 ptrans:     0.5000000     0.0000000     0.5000000
 rotmap:
 (   1->   3)  (   2->   2)  (   3->   1)  (   4->   4) 

 ptrans:     0.0000000     0.5000000     0.5000000
 rotmap:
 (   1->   2)  (   2->   3)  (   3->   4)  (   4->   1) 


 irot  :  48
 --------------------------------------------------------------------
 isymop:   0   0   1
           0   1   0
           1   0   0

 gtrans:     0.0000000     0.0000000    -0.0000000

 ptrans:     0.0000000     0.0000000     0.0000000
 rotmap:
 (   1->   1)  (   2->   4)  (   3->   3)  (   4->   2) 

 ptrans:     0.5000000     0.5000000     0.0000000
 rotmap:
 (   1->   4)  (   2->   1)  (   3->   2)  (   4->   3) 

 ptrans:     0.5000000     0.0000000     0.5000000
 rotmap:
 (   1->   3)  (   2->   2)  (   3->   1)  (   4->   4) 

 ptrans:     0.0000000     0.5000000     0.5000000
 rotmap:
 (   1->   2)  (   2->   3)  (   3->   4)  (   4->   1) 
 
 
 KPOINTS: pymatgen 4.7.6+ generated KPOINTS with g

Automatic generation of k-mesh.
Space group operators:
 irot       det(A)        alpha          n_x          n_y          n_z        tau_x        tau_y        tau_z
    1     1.000000     0.000001     1.000000     0.000000     0.000000     0.000000     0.000000    -0.000000
    2    -1.000000     0.000001     1.000000     0.000000     0.000000     0.000000     0.000000    -0.000000
    3     1.000000   120.000000    -0.577350    -0.577350    -0.577350     0.000000     0.000000    -0.000000
    4    -1.000000   120.000000    -0.577350    -0.577350    -0.577350     0.000000     0.000000    -0.000000
    5     1.000000   120.000000     0.577350     0.577350     0.577350     0.000000     0.000000    -0.000000
    6    -1.000000   120.000000     0.577350     0.577350     0.577350     0.000000     0.000000    -0.000000
    7     1.000000    90.000000     0.000000     0.000000    -1.000000     0.000000     0.000000    -0.000000
    8    -1.000000    90.000000     0.000000     0.000000    -1.000000     0.000000     0.000000    -0.000000
    9     1.000000   180.000000     0.000000     0.707107     0.707107     0.000000     0.000000    -0.000000
   10    -1.000000   180.000000     0.000000     0.707107     0.707107     0.000000     0.000000    -0.000000
   11     1.000000    90.000000     0.000000     1.000000     0.000000     0.000000     0.000000    -0.000000
   12    -1.000000    90.000000     0.000000     1.000000     0.000000     0.000000     0.000000    -0.000000
   13     1.000000   180.000000     0.000000     0.000000     1.000000     0.000000     0.000000    -0.000000
   14    -1.000000   180.000000     0.000000     0.000000     1.000000     0.000000     0.000000    -0.000000
   15     1.000000   120.000000    -0.577350     0.577350     0.577350     0.000000     0.000000    -0.000000
   16    -1.000000   120.000000    -0.577350     0.577350     0.577350     0.000000     0.000000    -0.000000
   17     1.000000   120.000000    -0.577350     0.577350    -0.577350     0.000000     0.000000    -0.000000
   18    -1.000000   120.000000    -0.577350     0.577350    -0.577350     0.000000     0.000000    -0.000000
   19     1.000000    90.000000     0.000000     0.000000     1.000000     0.000000     0.000000    -0.000000
   20    -1.000000    90.000000     0.000000     0.000000     1.000000     0.000000     0.000000    -0.000000
   21     1.000000    90.000000    -1.000000     0.000000     0.000000     0.000000     0.000000    -0.000000
   22    -1.000000    90.000000    -1.000000     0.000000     0.000000     0.000000     0.000000    -0.000000
   23     1.000000   180.000000     0.707107     0.000000     0.707107     0.000000     0.000000    -0.000000
   24    -1.000000   180.000000     0.707107     0.000000     0.707107     0.000000     0.000000    -0.000000
   25     1.000000   120.000000     0.577350    -0.577350     0.577350     0.000000     0.000000    -0.000000
   26    -1.000000   120.000000     0.577350    -0.577350     0.577350     0.000000     0.000000    -0.000000
   27     1.000000   120.000000    -0.577350    -0.577350     0.577350     0.000000     0.000000    -0.000000
   28    -1.000000   120.000000    -0.577350    -0.577350     0.577350     0.000000     0.000000    -0.000000
   29     1.000000   180.000000     1.000000     0.000000     0.000000     0.000000     0.000000    -0.000000
   30    -1.000000   180.000000     1.000000     0.000000     0.000000     0.000000     0.000000    -0.000000
   31     1.000000    90.000000     0.000000    -1.000000     0.000000     0.000000     0.000000    -0.000000
   32    -1.000000    90.000000     0.000000    -1.000000     0.000000     0.000000     0.000000    -0.000000
   33     1.000000   180.000000     0.707107     0.707107     0.000000     0.000000     0.000000    -0.000000
   34    -1.000000   180.000000     0.707107     0.707107     0.000000     0.000000     0.000000    -0.000000
   35     1.000000    90.000000     1.000000     0.000000     0.000000     0.000000     0.000000    -0.000000
   36    -1.000000    90.000000     1.000000     0.000000     0.000000     0.000000     0.000000    -0.000000
   37     1.000000   120.000000     0.577350    -0.577350    -0.577350     0.000000     0.000000    -0.000000
   38    -1.000000   120.000000     0.577350    -0.577350    -0.577350     0.000000     0.000000    -0.000000
   39     1.000000   180.000000     0.000000     1.000000     0.000000     0.000000     0.000000    -0.000000
   40    -1.000000   180.000000     0.000000     1.000000     0.000000     0.000000     0.000000    -0.000000
   41     1.000000   120.000000     0.577350     0.577350    -0.577350     0.000000     0.000000    -0.000000
   42    -1.000000   120.000000     0.577350     0.577350    -0.577350     0.000000     0.000000    -0.000000
   43     1.000000   180.000000     0.000000    -0.707107     0.707107     0.000000     0.000000    -0.000000
   44    -1.000000   180.000000     0.000000    -0.707107     0.707107     0.000000     0.000000    -0.000000
   45     1.000000   180.000000     0.707107    -0.707107     0.000000     0.000000     0.000000    -0.000000
   46    -1.000000   180.000000     0.707107    -0.707107     0.000000     0.000000     0.000000    -0.000000
   47     1.000000   180.000000     0.707107     0.000000    -0.707107     0.000000     0.000000    -0.000000
   48    -1.000000   180.000000     0.707107     0.000000    -0.707107     0.000000     0.000000    -0.000000
 
 Subroutine IBZKPT returns following result:
 ===========================================
 
 Found     20 irreducible k-points:
 
 Following reciprocal coordinates:
            Coordinates               Weight
  0.062500  0.062500  0.062500      8.000000
  0.187500  0.062500  0.062500     24.000000
  0.312500  0.062500  0.062500     24.000000
  0.437500  0.062500  0.062500     24.000000
  0.187500  0.187500  0.062500     24.000000
  0.312500  0.187500  0.062500     48.000000
  0.437500  0.187500  0.062500     48.000000
  0.312500  0.312500  0.062500     24.000000
  0.437500  0.312500  0.062500     48.000000
  0.437500  0.437500  0.062500     24.000000
  0.187500  0.187500  0.187500      8.000000
  0.312500  0.187500  0.187500     24.000000
  0.437500  0.187500  0.187500     24.000000
  0.312500  0.312500  0.187500     24.000000
  0.437500  0.312500  0.187500     48.000000
  0.437500  0.437500  0.187500     24.000000
  0.312500  0.312500  0.312500      8.000000
  0.437500  0.312500  0.312500     24.000000
  0.437500  0.437500  0.312500     24.000000
  0.437500  0.437500  0.437500      8.000000
 
 Following cartesian coordinates:
            Coordinates               Weight
  0.017282  0.017282  0.017282      8.000000
  0.051847  0.017282  0.017282     24.000000
  0.086412  0.017282  0.017282     24.000000
  0.120976  0.017282  0.017282     24.000000
  0.051847  0.051847  0.017282     24.000000
  0.086412  0.051847  0.017282     48.000000
  0.120976  0.051847  0.017282     48.000000
  0.086412  0.086412  0.017282     24.000000
  0.120976  0.086412  0.017282     48.000000
  0.120976  0.120976  0.017282     24.000000
  0.051847  0.051847  0.051847      8.000000
  0.086412  0.051847  0.051847     24.000000
  0.120976  0.051847  0.051847     24.000000
  0.086412  0.086412  0.051847     24.000000
  0.120976  0.086412  0.051847     48.000000
  0.120976  0.120976  0.051847     24.000000
  0.086412  0.086412  0.086412      8.000000
  0.120976  0.086412  0.086412     24.000000
  0.120976  0.120976  0.086412     24.000000
  0.120976  0.120976  0.120976      8.000000
 
 TETIRR: Found    229 inequivalent tetrahedra from     3072


--------------------------------------------------------------------------------------------------------




 Dimension of arrays:
   k-points           NKPTS =     20   k-points in BZ     NKDIM =     20   number of bands    NBANDS=     26
   number of dos      NEDOS =    301   number of ions     NIONS =      4
   non local maximal  LDIM  =      6   non local SUM 2l+1 LMDIM =     18
   total plane-waves  NPLWV =  21952
   max r-space proj   IRMAX =   7065   max aug-charges    IRDMAX=  13642
   dimension x,y,z NGX =    28 NGY =   28 NGZ =   28
   dimension x,y,z NGXF=    56 NGYF=   56 NGZF=   56
   support grid    NGXF=    56 NGYF=   56 NGZF=   56
   ions per type =               4
 NGX,Y,Z   is equivalent  to a cutoff of  12.87, 12.87, 12.87 a.u.
 NGXF,Y,Z  is equivalent  to a cutoff of  25.74, 25.74, 25.74 a.u.


 I would recommend the setting:
   dimension x,y,z NGX =    27 NGY =   27 NGZ =   27
 SYSTEM =  unknown system
 POSCAR =  Cu4

 Startparameter for this run:
   NWRITE =      2    write-flag & timer
   PREC   = accura    normal or accurate (medium, high low for compatibility)
   ISTART =      0    job   : 0-new  1-cont  2-samecut
   ICHARG =      2    charge: 1-file 2-atom 10-const
   ISPIN  =      1    spin polarized calculation?
   LNONCOLLINEAR =      F non collinear calculations
   LSORBIT =      F    spin-orbit coupling
   INIWAV =      1    electr: 0-lowe 1-rand  2-diag
   LASPH  =      F    aspherical Exc in radial PAW
   METAGGA=      F    non-selfconsistent MetaGGA calc.

 Electronic Relaxation 1
   ENCUT  =  520.0 eV  38.22 Ry    6.18 a.u.   6.72  6.72  6.72*2*pi/ulx,y,z
   ENINI  =  520.0     initial cutoff
   ENAUG  =  587.0 eV  augmentation charge cutoff
   NELM   =    100;   NELMIN=  2; NELMDL= -5     # of ELM steps 
   EDIFF  = 0.2E-03   stopping-criterion for ELM
   LREAL  =      T    real-space projection
   NLSPLINE    = F    spline interpolate recip. space projectors
   LCOMPAT=      F    compatible to vasp.4.4
   GGA_COMPAT  = T    GGA compatible to vasp.4.4-vasp.4.6
   LMAXPAW     = -100 max onsite density
   LMAXMIX     =    2 max onsite mixed and CHGCAR
   VOSKOWN=      0    Vosko Wilk Nusair interpolation
   ROPT   =   -0.00025
 Ionic relaxation
   EDIFFG = 0.2E-02   stopping-criterion for IOM
   NSW    =     99    number of steps for IOM
   NBLOCK =      1;   KBLOCK =     99    inner block; outer block 
   IBRION =      2    ionic relax: 0-MD 1-quasi-New 2-CG
   NFREE  =      1    steps in history (QN), initial steepest desc. (CG)
   ISIF   =      3    stress and relaxation
   IWAVPR =     11    prediction:  0-non 1-charg 2-wave 3-comb
   ISYM   =      2    0-nonsym 1-usesym 2-fastsym
   LCORR  =      T    Harris-Foulkes like correction to forces

   POTIM  = 0.5000    time-step for ionic-motion
   TEIN   =    0.0    initial temperature
   TEBEG  =    0.0;   TEEND  =   0.0 temperature during run
   SMASS  =  -3.00    Nose mass-parameter (am)
   estimated Nose-frequenzy (Omega)   =  0.10E-29 period in steps =****** mass=  -0.299E-27a.u.
   SCALEE = 1.0000    scale energy and forces
   NPACO  =    256;   APACO  = 16.0  distance and # of slots for P.C.
   PSTRESS=    0.0 pullay stress

  Mass of Ions in am
   POMASS =  63.55
  Ionic Valenz
   ZVAL   =  11.00
  Atomic Wigner-Seitz radii
   RWIGS  =  -1.00
  virtual crystal weights 
   VCA    =   1.00
   NELECT =      44.0000    total number of electrons
   NUPDOWN=      -1.0000    fix difference up-down

 DOS related values:
   EMIN   =  10.00;   EMAX   =-10.00  energy-range for DOS
   EFERMI =   0.00
   ISMEAR =    -5;   SIGMA  =   0.05  broadening in eV -4-tet -1-fermi 0-gaus

 Electronic relaxation 2 (details)
   IALGO  =     68    algorithm
   LDIAG  =      T    sub-space diagonalisation (order eigenvalues)
   LSUBROT=      T    optimize rotation matrix (better conditioning)
   TURBO    =      0    0=normal 1=particle mesh
   IRESTART =      0    0=no restart 2=restart with 2 vectors
   NREBOOT  =      0    no. of reboots
   NMIN     =      0    reboot dimension
   EREF     =   0.00    reference energy to select bands
   IMIX   =      4    mixing-type and parameters
     AMIX     =   0.40;   BMIX     =  1.00
     AMIX_MAG =   1.60;   BMIX_MAG =  1.00
     AMIN     =   0.10
     WC   =   100.;   INIMIX=   1;  MIXPRE=   1;  MAXMIX= -45

 Intra band minimization:
   WEIMIN = 0.0010     energy-eigenvalue tresh-hold
   EBREAK =  0.19E-05  absolut break condition
   DEPER  =   0.30     relativ break condition  

   TIME   =   0.40     timestep for ELM

  volume/ion in A,a.u.               =      11.82        79.79
  Fermi-wavevector in a.u.,A,eV,Ry     =   1.598141  3.020049 34.750022  2.554055
  Thomas-Fermi vector in A             =   2.695637
 
 Write flags
   LWAVE  =      F    write WAVECAR
   LCHARG =      T    write CHGCAR
   LVTOT  =      F    write LOCPOT, total local potential
   LVHAR  =      F    write LOCPOT, Hartree potential only
   LELF   =      F    write electronic localiz. function (ELF)
   LORBIT =     11    0 simple, 1 ext, 2 COOP (PROOUT)


 Dipole corrections
   LMONO  =      F    monopole corrections only (constant potential shift)
   LDIPOL =      F    correct potential (dipole corrections)
   IDIPOL =      0    1-x, 2-y, 3-z, 4-all directions 
   EPSILON=  1.0000000 bulk dielectric constant

 Exchange correlation treatment:
   GGA     =    --    GGA type
   LEXCH   =     8    internal setting for exchange type
   VOSKOWN=      0    Vosko Wilk Nusair interpolation
   LHFCALC =     F    Hartree Fock is set to
   LHFONE  =     F    Hartree Fock one center treatment
   AEXX    =    0.0000 exact exchange contribution

 Linear response parameters
   LEPSILON=     F    determine dielectric tensor
   LRPA    =     F    only Hartree local field effects (RPA)
   LNABLA  =     F    use nabla operator in PAW spheres
   LVEL    =     F    velocity operator in full k-point grid
   LINTERFAST=   F  fast interpolation
   KINTER  =     0    interpolate to denser k-point grid
   CSHIFT  =0.1000    complex shift for real part using Kramers Kronig
   OMEGAMAX=  -1.0    maximum frequency
   DEG_THRESHOLD= 0.2000000E-02 threshold for treating states as degnerate
   RTIME   =    0.100 relaxation time in fs

 Orbital magnetization related:
   ORBITALMAG=     F  switch on orbital magnetization
   LCHIMAG   =     F  perturbation theory with respect to B field
   DQ        =  0.001000  dq finite difference perturbation B field



--------------------------------------------------------------------------------------------------------


 conjugate gradient relaxation of ions
 charge density and potential will be updated during run
 non-spin polarized calculation
 RMM-DIIS sequential band-by-band and
  variant of blocked Davidson during initial phase
 perform sub-space diagonalisation
    before iterative eigenvector-optimisation
 modified Broyden-mixing scheme, WC =      100.0
 initial mixing is a Kerker type mixing with AMIX =  0.4000 and BMIX =      1.0000
 Hartree-type preconditioning will be used
 using additional bands            4
 real space projection scheme for non local part
 use partial core corrections
 calculate Harris-corrections to forces
   (improved forces if not selfconsistent)
 use gradient corrections
 use of overlap-Matrix (Vanderbilt PP)
 Fermi weights with tetrahedron method with Bloechl corrections


--------------------------------------------------------------------------------------------------------


  energy-cutoff  :      520.00
  volume of cell :       47.30
      direct lattice vectors                 reciprocal lattice vectors
     3.616407000  0.000000000  0.000000000     0.276517549  0.000000000  0.000000000
     0.000000000  3.616407000  0.000000000     0.000000000  0.276517549  0.000000000
     0.000000000  0.000000000  3.616407000     0.000000000  0.000000000  0.276517549

  length of vectors
     3.616407000  3.616407000  3.616407000     0.276517549  0.276517549  0.276517549


 
 k-points in units of 2pi/SCALE and weight: pymatgen 4.7.6+ generated KPOINTS with g
   0.01728235  0.01728235  0.01728235       0.016
   0.05184704  0.01728235  0.01728235       0.047
   0.08641173  0.01728235  0.01728235       0.047
   0.12097643  0.01728235  0.01728235       0.047
   0.05184704  0.05184704  0.01728235       0.047
   0.08641173  0.05184704  0.01728235       0.094
   0.12097643  0.05184704  0.01728235       0.094
   0.08641173  0.08641173  0.01728235       0.047
   0.12097643  0.08641173  0.01728235       0.094
   0.12097643  0.12097643  0.01728235       0.047
   0.05184704  0.05184704  0.05184704       0.016
   0.08641173  0.05184704  0.05184704       0.047
   0.12097643  0.05184704  0.05184704       0.047
   0.08641173  0.08641173  0.05184704       0.047
   0.12097643  0.08641173  0.05184704       0.094
   0.12097643  0.12097643  0.05184704       0.047
   0.08641173  0.08641173  0.08641173       0.016
   0.12097643  0.08641173  0.08641173       0.047
   0.12097643  0.12097643  0.08641173       0.047
   0.12097643  0.12097643  0.12097643       0.016
 
 k-points in reciprocal lattice and weights: pymatgen 4.7.6+ generated KPOINTS with g
   0.06250000  0.06250000  0.06250000       0.016
   0.18750000  0.06250000  0.06250000       0.047
   0.31250000  0.06250000  0.06250000       0.047
   0.43750000  0.06250000  0.06250000       0.047
   0.18750000  0.18750000  0.06250000       0.047
   0.31250000  0.18750000  0.06250000       0.094
   0.43750000  0.18750000  0.06250000       0.094
   0.31250000  0.31250000  0.06250000       0.047
   0.43750000  0.31250000  0.06250000       0.094
   0.43750000  0.43750000  0.06250000       0.047
   0.18750000  0.18750000  0.18750000       0.016
   0.31250000  0.18750000  0.18750000       0.047
   0.43750000  0.18750000  0.18750000       0.047
   0.31250000  0.31250000  0.18750000       0.047
   0.43750000  0.31250000  0.18750000       0.094
   0.43750000  0.43750000  0.18750000       0.047
   0.31250000  0.31250000  0.31250000       0.016
   0.43750000  0.31250000  0.31250000       0.047
   0.43750000  0.43750000  0.31250000       0.047
   0.43750000  0.43750000  0.43750000       0.016
 
 position of ions in fractional coordinates (direct lattice) 
   0.00000000  0.00000000  0.00000000
   0.00000000  0.50000000  0.50000000
   0.50000000  0.00000000  0.50000000
   0.50000000  0.50000000  0.00000000
 
 position of ions in cartesian coordinates  (Angst):
   0.00000000  0.00000000  0.00000000
   0.00000000  1.80820350  1.80820350
   1.80820350  0.00000000  1.80820350
   1.80820350  1.80820350  0.00000000
 


--------------------------------------------------------------------------------------------------------


 k-point  1 :   0.0625 0.0625 0.0625  plane waves:    1288
 k-point  2 :   0.1875 0.0625 0.0625  plane waves:    1278
 k-point  3 :   0.3125 0.0625 0.0625  plane waves:    1273
 k-point  4 :   0.4375 0.0625 0.0625  plane waves:    1268
 k-point  5 :   0.1875 0.1875 0.0625  plane waves:    1280
 k-point  6 :   0.3125 0.1875 0.0625  plane waves:    1272
 k-point  7 :   0.4375 0.1875 0.0625  plane waves:    1267
 k-point  8 :   0.3125 0.3125 0.0625  plane waves:    1280
 k-point  9 :   0.4375 0.3125 0.0625  plane waves:    1274
 k-point 10 :   0.4375 0.4375 0.0625  plane waves:    1272
 k-point 11 :   0.1875 0.1875 0.1875  plane waves:    1277
 k-point 12 :   0.3125 0.1875 0.1875  plane waves:    1271
 k-point 13 :   0.4375 0.1875 0.1875  plane waves:    1275
 k-point 14 :   0.3125 0.3125 0.1875  plane waves:    1264
 k-point 15 :   0.4375 0.3125 0.1875  plane waves:    1275
 k-point 16 :   0.4375 0.4375 0.1875  plane waves:    1273
 k-point 17 :   0.3125 0.3125 0.3125  plane waves:    1265
 k-point 18 :   0.4375 0.3125 0.3125  plane waves:    1272
 k-point 19 :   0.4375 0.4375 0.3125  plane waves:    1275
 k-point 20 :   0.4375 0.4375 0.4375  plane waves:    1283

 maximum number of plane-waves:      1288
 maximum index in each direction: 
   IXMAX=    6   IYMAX=    6   IZMAX=    6
   IXMIN=   -7   IYMIN=   -7   IZMIN=   -7

 NGX is ok and might be reduce to  28
 NGY is ok and might be reduce to  28
 NGZ is ok and might be reduce to  28

 total amount of memory used by VASP on root node    55724. kBytes
========================================================================

   base      :      30000. kBytes
   nonlr-proj:       4827. kBytes
   grid      :       9520. kBytes
   one-center:         62. kBytes
   wavefun   :      11315. kBytes
 
 For storing wavefunctions   10.60 MBYTES are necessary
 For predicting wavefunctions    2.68 MBYTES are necessary
 Broyden mixing: mesh for mixing (old mesh)
   NGX = 13   NGY = 13   NGZ = 13
  (NGX  = 56   NGY  = 56   NGZ  = 56)
  gives a total of   2197 points

 initial charge density was supplied:
 charge density of overlapping atoms calculated
 number of electron      44.0000000 magnetization 
 keeping initial charge density in first step


--------------------------------------------------------------------------------------------------------


 Maximum index for non-local projection operator         6859
 Maximum index for augmentation-charges        13133 (set IRDMAX)


--------------------------------------------------------------------------------------------------------


 First call to EWALD:  gamma=   0.490
 Maximum number of real-space cells 3x 3x 3
 Maximum number of reciprocal cells 3x 3x 3

    FEWALD:  cpu time    0.00: real time    0.00


----------------------------------------- Iteration    1(   1)  ---------------------------------------


    POTLOK:  cpu time    0.11: real time    0.11
    SETDIJ:  cpu time    0.02: real time    0.02
     EDDAV:  cpu time    4.06: real time    4.06
 BZINTS: Fermi energy: 20.169639; 44.000000 electrons
         Band energy: 627.901250;  BLOECHL correction: -0.502595
       DOS:  cpu time    0.01: real time    0.01
    --------------------------------------------
      LOOP:  cpu time    4.20: real time    4.20

 eigenvalue-minimisations  :  1088
 total energy-change (2. order) : 0.3324975E+03  (-0.2046808E+04)
 number of electron      44.0000000 magnetization 
 augmentation part       44.0000000 magnetization 

 Free energy of the ion-electron system (eV)
  ---------------------------------------------------
  alpha Z        PSCENC =       247.40034584
  Ewald energy   TEWEN  =     -4417.94614910
  -1/2 Hartree   DENC   =     -1448.52646164
  -exchange  EXHF       =         0.00000000
  -V(xc)+E(xc)   XCENC  =       183.12754211
  PAW double counting   =      4912.82663951    -5336.19386850
  entropy T*S    EENTRO =         0.00000000
  eigenvalues    EBANDS =       627.90125026
  atomic energy  EATOM  =      5563.90821598
  ---------------------------------------------------
  free energy    TOTEN  =       332.49751445 eV

  energy without entropy =      332.49751445  energy(sigma->0) =      332.49751445


--------------------------------------------------------------------------------------------------------




----------------------------------------- Iteration    1(   2)  ---------------------------------------


     EDDAV:  cpu time    4.04: real time    4.05
 BZINTS: Fermi energy: 10.778953; 44.000000 electrons
         Band energy: 303.290885;  BLOECHL correction: -0.161288
       DOS:  cpu time    0.01: real time    0.01
    --------------------------------------------
      LOOP:  cpu time    4.06: real time    4.06

 eigenvalue-minimisations  :  1040
 total energy-change (2. order) :-0.3246104E+03  (-0.3191533E+03)
 number of electron      44.0000000 magnetization 
 augmentation part       44.0000000 magnetization 

 Free energy of the ion-electron system (eV)
  ---------------------------------------------------
  alpha Z        PSCENC =       247.40034584
  Ewald energy   TEWEN  =     -4417.94614910
  -1/2 Hartree   DENC   =     -1448.52646164
  -exchange  EXHF       =         0.00000000
  -V(xc)+E(xc)   XCENC  =       183.12754211
  PAW double counting   =      4912.82663951    -5336.19386850
  entropy T*S    EENTRO =         0.00000000
  eigenvalues    EBANDS =       303.29088460
  atomic energy  EATOM  =      5563.90821598
  ---------------------------------------------------
  free energy    TOTEN  =         7.88714880 eV

  energy without entropy =        7.88714880  energy(sigma->0) =        7.88714880


--------------------------------------------------------------------------------------------------------




----------------------------------------- Iteration    1(   3)  ---------------------------------------


     EDDAV:  cpu time    4.20: real time    4.21
 BZINTS: Fermi energy:  9.144415; 44.000000 electrons
         Band energy: 277.476629;  BLOECHL correction: -0.095227
       DOS:  cpu time    0.01: real time    0.01
    --------------------------------------------
      LOOP:  cpu time    4.22: real time    4.22

 eigenvalue-minimisations  :  1094
 total energy-change (2. order) :-0.2581426E+02  (-0.2481985E+02)
 number of electron      44.0000000 magnetization 
 augmentation part       44.0000000 magnetization 

 Free energy of the ion-electron system (eV)
  ---------------------------------------------------
  alpha Z        PSCENC =       247.40034584
  Ewald energy   TEWEN  =     -4417.94614910
  -1/2 Hartree   DENC   =     -1448.52646164
  -exchange  EXHF       =         0.00000000
  -V(xc)+E(xc)   XCENC  =       183.12754211
  PAW double counting   =      4912.82663951    -5336.19386850
  entropy T*S    EENTRO =         0.00000000
  eigenvalues    EBANDS =       277.47662945
  atomic energy  EATOM  =      5563.90821598
  ---------------------------------------------------
  free energy    TOTEN  =       -17.92710635 eV

  energy without entropy =      -17.92710635  energy(sigma->0) =      -17.92710635


--------------------------------------------------------------------------------------------------------




----------------------------------------- Iteration    1(   4)  ---------------------------------------


     EDDAV:  cpu time    4.52: real time    4.53
 BZINTS: Fermi energy:  9.122932; 44.000000 electrons
         Band energy: 276.893820;  BLOECHL correction: -0.098938
       DOS:  cpu time    0.01: real time    0.01
    --------------------------------------------
      LOOP:  cpu time    4.54: real time    4.54

 eigenvalue-minimisations  :  1208
 total energy-change (2. order) :-0.5828098E+00  (-0.5783815E+00)
 number of electron      44.0000000 magnetization 
 augmentation part       44.0000000 magnetization 

 Free energy of the ion-electron system (eV)
  ---------------------------------------------------
  alpha Z        PSCENC =       247.40034584
  Ewald energy   TEWEN  =     -4417.94614910
  -1/2 Hartree   DENC   =     -1448.52646164
  -exchange  EXHF       =         0.00000000
  -V(xc)+E(xc)   XCENC  =       183.12754211
  PAW double counting   =      4912.82663951    -5336.19386850
  entropy T*S    EENTRO =         0.00000000
  eigenvalues    EBANDS =       276.89381968
  atomic energy  EATOM  =      5563.90821598
  ---------------------------------------------------
  free energy    TOTEN  =       -18.50991613 eV

  energy without entropy =      -18.50991613  energy(sigma->0) =      -18.50991613


--------------------------------------------------------------------------------------------------------




----------------------------------------- Iteration    1(   5)  ---------------------------------------


     EDDAV:  cpu time    5.02: real time    5.02
 BZINTS: Fermi energy:  9.122652; 44.000000 electrons
         Band energy: 276.886519;  BLOECHL correction: -0.099007
       DOS:  cpu time    0.01: real time    0.01
    CHARGE:  cpu time    0.36: real time    0.36
    MIXING:  cpu time    0.00: real time    0.00
    --------------------------------------------
      LOOP:  cpu time    5.40: real time    5.40

 eigenvalue-minimisations  :  1378
 total energy-change (2. order) :-0.7300962E-02  (-0.7263175E-02)
 number of electron      43.9999916 magnetization 
 augmentation part       25.9531002 magnetization 

 Broyden mixing:
  rms(total) = 0.15323E+01    rms(broyden)= 0.15322E+01
  rms(prec ) = 0.35948E+01
  weight for this iteration     100.00

 Free energy of the ion-electron system (eV)
  ---------------------------------------------------
  alpha Z        PSCENC =       247.40034584
  Ewald energy   TEWEN  =     -4417.94614910
  -1/2 Hartree   DENC   =     -1448.52646164
  -exchange  EXHF       =         0.00000000
  -V(xc)+E(xc)   XCENC  =       183.12754211
  PAW double counting   =      4912.82663951    -5336.19386850
  entropy T*S    EENTRO =         0.00000000
  eigenvalues    EBANDS =       276.88651872
  atomic energy  EATOM  =      5563.90821598
  ---------------------------------------------------
  free energy    TOTEN  =       -18.51721709 eV

  energy without entropy =      -18.51721709  energy(sigma->0) =      -18.51721709


--------------------------------------------------------------------------------------------------------




----------------------------------------- Iteration    1(   6)  ---------------------------------------


    POTLOK:  cpu time    0.11: real time    0.11
    SETDIJ:  cpu time    0.02: real time    0.02
    EDDIAG:  cpu time    0.78: real time    0.79
  RMM-DIIS:  cpu time    2.77: real time    2.77
    ORTHCH:  cpu time    0.01: real time    0.01
 BZINTS: Fermi energy:  6.924174; 44.000000 electrons
         Band energy: 151.098745;  BLOECHL correction: -0.155777
       DOS:  cpu time    0.01: real time    0.01
    CHARGE:  cpu time    0.37: real time    0.37
    MIXING:  cpu time    0.00: real time    0.00
    --------------------------------------------
      LOOP:  cpu time    4.08: real time    4.09

 eigenvalue-minimisations  :  1044
 total energy-change (2. order) : 0.2232435E+01  (-0.4087652E+01)
 number of electron      43.9999907 magnetization 
 augmentation part       29.2682878 magnetization 

 Broyden mixing:
  rms(total) = 0.78732E+00    rms(broyden)= 0.78725E+00
  rms(prec ) = 0.16739E+01
  weight for this iteration     100.00

 eigenvalues of (default mixing * dielectric matrix)
  average eigenvalue GAMMA=   0.6619
  0.6619

 Free energy of the ion-electron system (eV)
  ---------------------------------------------------
  alpha Z        PSCENC =       247.40034584
  Ewald energy   TEWEN  =     -4417.94614910
  -1/2 Hartree   DENC   =     -1336.96962005
  -exchange  EXHF       =         0.00000000
  -V(xc)+E(xc)   XCENC  =       177.58840381
  PAW double counting   =      4991.65961480    -5393.02433912
  entropy T*S    EENTRO =         0.00000000
  eigenvalues    EBANDS =       151.09874536
  atomic energy  EATOM  =      5563.90821598
  ---------------------------------------------------
  free energy    TOTEN  =       -16.28478248 eV

  energy without entropy =      -16.28478248  energy(sigma->0) =      -16.28478248


--------------------------------------------------------------------------------------------------------




----------------------------------------- Iteration    1(   7)  ---------------------------------------


    POTLOK:  cpu time    0.11: real time    0.11
    SETDIJ:  cpu time    0.02: real time    0.02
    EDDIAG:  cpu time    0.78: real time    0.78
  RMM-DIIS:  cpu time    2.78: real time    2.78
    ORTHCH:  cpu time    0.01: real time    0.01
 BZINTS: Fermi energy:  7.652901; 44.000000 electrons
         Band energy: 203.882139;  BLOECHL correction: -0.137398
       DOS:  cpu time    0.01: real time    0.01
    CHARGE:  cpu time    0.37: real time    0.37
    MIXING:  cpu time    0.00: real time    0.00
    --------------------------------------------
      LOOP:  cpu time    4.08: real time    4.09

 eigenvalue-minimisations  :  1044
 total energy-change (2. order) : 0.1334850E+01  (-0.7077077E+00)
 number of electron      43.9999911 magnetization 
 augmentation part       27.9396106 magnetization 

 Broyden mixing:
  rms(total) = 0.12755E+00    rms(broyden)= 0.12751E+00
  rms(prec ) = 0.32036E+00
  weight for this iteration     100.00

 eigenvalues of (default mixing * dielectric matrix)
  average eigenvalue GAMMA=   1.2609
  1.8931  0.6286

 Free energy of the ion-electron system (eV)
  ---------------------------------------------------
  alpha Z        PSCENC =       247.40034584
  Ewald energy   TEWEN  =     -4417.94614910
  -1/2 Hartree   DENC   =     -1370.64486872
  -exchange  EXHF       =         0.00000000
  -V(xc)+E(xc)   XCENC  =       179.36449454
  PAW double counting   =      5096.75762738    -5517.67173680
  entropy T*S    EENTRO =         0.00000000
  eigenvalues    EBANDS =       203.88213859
  atomic energy  EATOM  =      5563.90821598
  ---------------------------------------------------
  free energy    TOTEN  =       -14.94993230 eV

  energy without entropy =      -14.94993230  energy(sigma->0) =      -14.94993230


--------------------------------------------------------------------------------------------------------




----------------------------------------- Iteration    1(   8)  ---------------------------------------


    POTLOK:  cpu time    0.11: real time    0.11
    SETDIJ:  cpu time    0.02: real time    0.02
    EDDIAG:  cpu time    0.78: real time    0.78
  RMM-DIIS:  cpu time    2.89: real time    2.90
    ORTHCH:  cpu time    0.01: real time    0.01
 BZINTS: Fermi energy:  7.625900; 44.000000 electrons
         Band energy: 201.621128;  BLOECHL correction: -0.138698
       DOS:  cpu time    0.01: real time    0.01
    CHARGE:  cpu time    0.37: real time    0.37
    MIXING:  cpu time    0.00: real time    0.00
    --------------------------------------------
      LOOP:  cpu time    4.20: real time    4.21

 eigenvalue-minimisations  :  1097
 total energy-change (2. order) : 0.3789673E-01  (-0.4100719E-02)
 number of electron      43.9999911 magnetization 
 augmentation part       27.9940052 magnetization 

 Broyden mixing:
  rms(total) = 0.42330E-01    rms(broyden)= 0.42328E-01
  rms(prec ) = 0.10454E+00
  weight for this iteration     100.00

 eigenvalues of (default mixing * dielectric matrix)
  average eigenvalue GAMMA=   1.3478
  0.6395  1.0234  2.3807

 Free energy of the ion-electron system (eV)
  ---------------------------------------------------
  alpha Z        PSCENC =       247.40034584
  Ewald energy   TEWEN  =     -4417.94614910
  -1/2 Hartree   DENC   =     -1359.04132108
  -exchange  EXHF       =         0.00000000
  -V(xc)+E(xc)   XCENC  =       178.86653372
  PAW double counting   =      5224.52368364    -5654.24447231
  entropy T*S    EENTRO =         0.00000000
  eigenvalues    EBANDS =       201.62112775
  atomic energy  EATOM  =      5563.90821598
  ---------------------------------------------------
  free energy    TOTEN  =       -14.91203557 eV

  energy without entropy =      -14.91203557  energy(sigma->0) =      -14.91203557


--------------------------------------------------------------------------------------------------------




----------------------------------------- Iteration    1(   9)  ---------------------------------------


    POTLOK:  cpu time    0.11: real time    0.11
    SETDIJ:  cpu time    0.02: real time    0.02
    EDDIAG:  cpu time    0.78: real time    0.78
  RMM-DIIS:  cpu time    2.85: real time    2.85
    ORTHCH:  cpu time    0.01: real time    0.01
 BZINTS: Fermi energy:  7.597214; 44.000000 electrons
         Band energy: 199.613911;  BLOECHL correction: -0.139716
       DOS:  cpu time    0.01: real time    0.01
    CHARGE:  cpu time    0.37: real time    0.37
    MIXING:  cpu time    0.00: real time    0.00
    --------------------------------------------
      LOOP:  cpu time    4.16: real time    4.16

 eigenvalue-minimisations  :  1075
 total energy-change (2. order) : 0.3662999E-02  (-0.9344030E-03)
 number of electron      43.9999910 magnetization 
 augmentation part       28.0395804 magnetization 

 Broyden mixing:
  rms(total) = 0.25176E-02    rms(broyden)= 0.25133E-02
  rms(prec ) = 0.31758E-02
  weight for this iteration     100.00

 eigenvalues of (default mixing * dielectric matrix)
  average eigenvalue GAMMA=   1.6259
  2.9889  0.6407  0.9235  1.9505

 Free energy of the ion-electron system (eV)
  ---------------------------------------------------
  alpha Z        PSCENC =       247.40034584
  Ewald energy   TEWEN  =     -4417.94614910
  -1/2 Hartree   DENC   =     -1354.86062602
  -exchange  EXHF       =         0.00000000
  -V(xc)+E(xc)   XCENC  =       178.67898133
  PAW double counting   =      5264.05088825    -5695.75393970
  entropy T*S    EENTRO =         0.00000000
  eigenvalues    EBANDS =       199.61391085
  atomic energy  EATOM  =      5563.90821598
  ---------------------------------------------------
  free energy    TOTEN  =       -14.90837257 eV

  energy without entropy =      -14.90837257  energy(sigma->0) =      -14.90837257


--------------------------------------------------------------------------------------------------------




----------------------------------------- Iteration    1(  10)  ---------------------------------------


    POTLOK:  cpu time    0.11: real time    0.11
    SETDIJ:  cpu time    0.02: real time    0.02
    EDDIAG:  cpu time    0.78: real time    0.78
  RMM-DIIS:  cpu time    2.13: real time    2.13
    ORTHCH:  cpu time    0.01: real time    0.01
 BZINTS: Fermi energy:  7.595022; 44.000000 electrons
         Band energy: 199.427560;  BLOECHL correction: -0.139831
       DOS:  cpu time    0.01: real time    0.01
    --------------------------------------------
      LOOP:  cpu time    3.07: real time    3.08

 eigenvalue-minimisations  :   764
 total energy-change (2. order) :-0.1693278E-03  (-0.1085777E-03)
 number of electron      43.9999910 magnetization 
 augmentation part       28.0395804 magnetization 

 Free energy of the ion-electron system (eV)
  ---------------------------------------------------
  alpha Z        PSCENC =       247.40034584
  Ewald energy   TEWEN  =     -4417.94614910
  -1/2 Hartree   DENC   =     -1354.73567654
  -exchange  EXHF       =         0.00000000
  -V(xc)+E(xc)   XCENC  =       178.67257212
  PAW double counting   =      5267.44879140    -5699.08420158
  entropy T*S    EENTRO =         0.00000000
  eigenvalues    EBANDS =       199.42755999
  atomic energy  EATOM  =      5563.90821598
  ---------------------------------------------------
  free energy    TOTEN  =       -14.90854190 eV

  energy without entropy =      -14.90854190  energy(sigma->0) =      -14.90854190


--------------------------------------------------------------------------------------------------------




 average (electrostatic) potential at core
  the test charge radii are     0.9430
[...]
      7       3.6620      2.00000
      8       4.0642      2.00000
      9       4.2338      2.00000
     10       4.2338      2.00000
     11       4.3233      2.00000
     12       4.4734      2.00000
     13       4.5253      2.00000
     14       4.9010      2.00000
     15       4.9010      2.00000
     16       4.9101      2.00000
     17       5.1507      2.00000
     18       5.4358      2.00000
     19       5.6569      2.00000
     20       5.6695      2.00000
     21       5.6695      2.00000
     22       7.5129      1.34704
     23       7.5129      0.04452
     24       9.7607      0.00000
     25      11.9104      0.00000
     26      14.4240      0.00000

 k-point  15 :       0.4375    0.3125    0.1875
  band No.  band energies     occupation 
      1       1.4643      2.00000
      2       2.2947      2.00000
      3       3.0446      2.00000
      4       3.1309      2.00000
      5       3.7706      2.00000
      6       3.8098      2.00000
      7       3.8818      2.00000
      8       4.0181      2.00000
      9       4.1870      2.00000
     10       4.2350      2.00000
     11       4.2722      2.00000
     12       4.3698      2.00000
     13       4.5747      2.00000
     14       4.7095      2.00000
     15       4.8007      2.00000
     16       4.8119      2.00000
     17       5.2940      2.00000
     18       5.5382      2.00000
     19       5.5926      2.00000
     20       5.5948      2.00000
     21       5.7239      2.00000
     22       6.3145      2.04727
     23       8.3749     -0.10216
     24       9.3871      0.00000
     25      11.7251      0.00000
     26      12.8390      0.00000

 k-point  16 :       0.4375    0.4375    0.1875
  band No.  band energies     occupation 
      1       2.0735      2.00000
      2       2.6253      2.00000
      3       2.6253      2.00000
      4       2.8951      2.00000
      5       3.9820      2.00000
      6       4.0810      2.00000
      7       4.0810      2.00000
      8       4.1669      2.00000
      9       4.2210      2.00000
     10       4.2210      2.00000
     11       4.2881      2.00000
     12       4.3302      2.00000
     13       4.5474      2.00000
     14       4.6431      2.00000
     15       4.6431      2.00000
     16       4.6622      2.00000
     17       5.2957      2.00000
     18       5.4527      2.00000
     19       5.4527      2.00000
     20       5.4899      2.00000
     21       6.1817      2.00000
     22       6.9941      1.98896
     23       6.9941      1.35335
     24       8.0141      0.00000
     25      12.6000      0.00000
     26      13.9027      0.00000

 k-point  17 :       0.3125    0.3125    0.3125
  band No.  band energies     occupation 
      1       1.1630      2.00000
      2       2.8488      2.00000
      3       2.8488      2.00000
      4       2.8488      2.00000
      5       3.8634      2.00000
      6       3.8634      2.00000
      7       3.8634      2.00000
      8       4.2330      2.00000
      9       4.3550      2.00000
     10       4.3550      2.00000
     11       4.3550      2.00000
     12       4.4471      2.00000
     13       4.4471      2.00000
     14       4.7057      2.00000
     15       4.7057      2.00000
     16       4.7057      2.00000
     17       5.3754      2.00000
     18       5.3754      2.00000
     19       5.7126      2.00000
     20       5.7126      2.00000
     21       5.7126      2.00000
     22       7.9120      0.61043
     23       7.9120     -0.01129
     24       7.9120     -0.00038
     25      12.5750      0.00000
     26      12.5750      0.00000

 k-point  18 :       0.4375    0.3125    0.3125
  band No.  band energies     occupation 
      1       1.7977      2.00000
      2       2.3921      2.00000
      3       2.8198      2.00000
      4       2.8198      2.00000
      5       3.9876      2.00000
      6       3.9876      2.00000
      7       4.1415      2.00000
      8       4.3509      2.00000
      9       4.3862      2.00000
     10       4.3919      2.00000
     11       4.4525      2.00000
     12       4.5069      2.00000
     13       4.5069      2.00000
     14       4.5430      2.00000
     15       4.6104      2.00000
     16       4.6104      2.00000
     17       5.5625      2.00000
     18       5.5974      2.00000
     19       5.6644      2.00000
     20       5.6644      2.00000
     21       5.6813      2.00000
     22       6.4556      2.05270
     23       8.3451     -0.14333
     24       8.3451     -0.03228
     25      11.3858      0.00000
     26      11.3858      0.00000

 k-point  19 :       0.4375    0.4375    0.3125
  band No.  band energies     occupation 
      1       2.1593      2.00000
      2       2.4974      2.00000
      3       2.4974      2.00000
      4       2.6341      2.00000
      5       4.1396      2.00000
      6       4.1989      2.00000
      7       4.1989      2.00000
      8       4.3312      2.00000
      9       4.3991      2.00000
     10       4.4589      2.00000
     11       4.4589      2.00000
     12       4.4794      2.00000
     13       4.7406      2.00000
     14       4.7406      2.00000
     15       4.7760      2.00000
     16       4.7792      2.00000
     17       5.5072      2.00000
     18       5.6310      2.00000
     19       5.6310      2.00000
     20       5.6341      2.00000
     21       5.9876      2.00000
     22       6.9341      1.99142
     23       6.9341      1.54067
     24       7.7248      0.05646
     25      11.2446      0.00000
     26      12.1400      0.00000

 k-point  20 :       0.4375    0.4375    0.4375
  band No.  band energies     occupation 
      1       2.2681      2.00000
      2       2.4216      2.00000
      3       2.4216      2.00000
      4       2.4216      2.00000
      5       4.2703      2.00000
      6       4.2703      2.00000
      7       4.2703      2.00000
      8       4.3344      2.00000
      9       4.3344      2.00000
     10       4.3628      2.00000
     11       4.3628      2.00000
     12       4.3628      2.00000
     13       5.2492      2.00000
     14       5.2492      2.00000
     15       5.2492      2.00000
     16       5.6478      2.00000
     17       5.6478      2.00000
     18       5.6922      2.00000
     19       5.6922      2.00000
     20       5.6922      2.00000
     21       5.7396      2.00000
     22       6.8336      1.99811
     23       6.8336      1.89975
     24       6.8336      1.63124
     25      11.1137      0.00000
     26      11.1137      0.00000


--------------------------------------------------------------------------------------------------------


 soft charge-density along one line, spin component           1
         0         1         2         3         4         5         6         7         8         9
x    15.9359    0.0000   -0.0000   -0.0000    0.7477    0.0000   -0.0000   -0.0000   -0.4108   -0.0000
x    -0.0000   -0.0000    0.0583   -0.0000   -0.0000    0.0000    0.0068    0.0000    0.0000    0.0000
x    -0.0003   -0.0000    0.0000    0.0000    0.0000    0.0000   -0.0000    0.0000    0.0000    0.0000
y    15.9359    0.0000   -0.0000   -0.0000    0.7477    0.0000   -0.0000   -0.0000   -0.4108   -0.0000
y    -0.0000   -0.0000    0.0583   -0.0000   -0.0000    0.0000    0.0068    0.0000    0.0000    0.0000
y    -0.0003   -0.0000    0.0000    0.0000    0.0000    0.0000   -0.0000    0.0000    0.0000    0.0000
z    15.9359    0.0000   -0.0000   -0.0000    0.7477    0.0000   -0.0000   -0.0000   -0.4108   -0.0000
z    -0.0000   -0.0000    0.0583   -0.0000   -0.0000    0.0000    0.0068    0.0000    0.0000    0.0000
z    -0.0003   -0.0000    0.0000    0.0000    0.0000    0.0000   -0.0000    0.0000    0.0000    0.0000
 total charge-density along one line
x    44.0000    0.0000    0.0000    0.0000   18.8965    0.0000   -0.0000    0.0000    3.6183   -0.0000
x     0.0000    0.0000    0.0015    0.0000   -0.0000    0.0000    0.0295   -0.0000   -0.0000    0.0000
x    -0.0071    0.0000    0.0000   -0.0000    0.0029    0.0000    0.0000   -0.0000   -0.0014   -0.0000
x    -0.0000   -0.0000    0.0008    0.0000   -0.0000   -0.0000   -0.0005   -0.0000   -0.0000   -0.0000
x     0.0003   -0.0000    0.0000    0.0000   -0.0002    0.0000   -0.0000    0.0000    0.0001   -0.0000
x     0.0000   -0.0000   -0.0001    0.0000    0.0000   -0.0000    0.0001    0.0000
y    44.0000    0.0000    0.0000    0.0000   18.8965    0.0000   -0.0000    0.0000    3.6183   -0.0000
y     0.0000    0.0000    0.0015   -0.0000   -0.0000   -0.0000    0.0295   -0.0000   -0.0000    0.0000
y    -0.0071   -0.0000    0.0000   -0.0000    0.0029   -0.0000    0.0000   -0.0000   -0.0014   -0.0000
y    -0.0000   -0.0000    0.0008    0.0000   -0.0000   -0.0000   -0.0005    0.0000   -0.0000   -0.0000
y     0.0003   -0.0000   -0.0000   -0.0000   -0.0002   -0.0000   -0.0000    0.0000    0.0001   -0.0000
y     0.0000   -0.0000   -0.0001    0.0000    0.0000   -0.0000    0.0001    0.0000
z    44.0000    0.0000    0.0000    0.0000   18.8965    0.0000   -0.0000    0.0000    3.6183    0.0000
z     0.0000    0.0000    0.0015   -0.0000   -0.0000    0.0000    0.0295   -0.0000   -0.0000    0.0000
z    -0.0071    0.0000   -0.0000    0.0000    0.0029    0.0000    0.0000   -0.0000   -0.0014   -0.0000
z     0.0000   -0.0000    0.0008   -0.0000   -0.0000   -0.0000   -0.0005    0.0000   -0.0000    0.0000
z     0.0003   -0.0000   -0.0000    0.0000   -0.0002   -0.0000   -0.0000    0.0000    0.0001    0.0000
z     0.0000    0.0000   -0.0001    0.0000    0.0000   -0.0000    0.0001    0.0000
 
 pseudopotential strength for first ion, spin component:           1
 -3.073   0.000  -0.000   0.000  -0.000  -4.588  -0.000   0.000
  0.000  -3.073  -0.000   0.000  -0.000  -0.000  -4.588   0.000
 -0.000  -0.000  -3.057   0.000   0.000   0.000   0.000  -4.600
  0.000   0.000   0.000  -3.073   0.000  -0.000  -0.000  -0.000
 -0.000  -0.000   0.000   0.000  -3.057   0.000   0.000  -0.000
 -4.588  -0.000   0.000  -0.000   0.000  10.195   0.000  -0.000
 -0.000  -4.588   0.000  -0.000   0.000   0.000  10.195   0.000
  0.000   0.000  -4.600  -0.000  -0.000  -0.000   0.000  10.204
 -0.000  -0.000  -0.000  -4.588  -0.000   0.000   0.000   0.000
  0.000   0.000  -0.000  -0.000  -4.600  -0.000  -0.000   0.000
 -0.000  -0.000  -0.000  -0.000  -0.000  -0.000  -0.000  -0.000
 -0.000  -0.000  -0.000  -0.000  -0.000  -0.000  -0.000  -0.000
  0.000  -0.000  -0.000   0.000  -0.000  -0.000   0.000   0.000
  0.000   0.000  -0.000   0.000   0.000   0.000   0.000  -0.000
  0.000   0.000  -0.000  -0.000   0.000  -0.000   0.000   0.000
  0.000  -0.000  -0.000  -0.000  -0.000   0.000  -0.000   0.000
 -0.000   0.000  -0.000   0.000  -0.000   0.000   0.000  -0.000
  0.000  -0.000  -0.000  -0.000   0.000   0.000   0.000  -0.000
 total augmentation occupancy for first ion, spin component:           1
  1.907  -0.000   0.000   0.000   0.000  -0.017  -0.000   0.000   0.000  -0.000  -0.000   0.000  -0.000   0.000   0.000   0.000
 -0.000   1.907   0.000  -0.000  -0.000   0.000  -0.017  -0.000   0.000   0.000  -0.000  -0.000   0.000   0.000  -0.000   0.000
  0.000  -0.000   1.926   0.000   0.000  -0.000   0.000  -0.035  -0.000  -0.000  -0.000  -0.000  -0.000   0.000   0.000   0.000
  0.000  -0.000  -0.000   1.907   0.000   0.000   0.000  -0.000  -0.017   0.000   0.000  -0.000   0.000   0.000  -0.000   0.000
  0.000   0.000   0.000   0.000   1.926  -0.000   0.000   0.000  -0.000  -0.035  -0.000   0.000  -0.000   0.000   0.000  -0.000
 -0.017   0.000  -0.000   0.000  -0.000   0.016   0.000  -0.000  -0.000  -0.000   0.000  -0.000  -0.000   0.000  -0.000   0.000
 -0.000  -0.017   0.000   0.000  -0.000   0.000   0.016   0.000  -0.000  -0.000   0.000  -0.000   0.000   0.000  -0.000   0.000
 -0.000  -0.000  -0.035  -0.000  -0.000  -0.000   0.000   0.015   0.000  -0.000   0.000  -0.000   0.000  -0.000   0.000   0.000
  0.000   0.000   0.000  -0.017  -0.000  -0.000  -0.000   0.000   0.016   0.000   0.000  -0.000   0.000   0.000   0.000   0.000
 -0.000  -0.000   0.000  -0.000  -0.035  -0.000  -0.000  -0.000   0.000   0.015  -0.000  -0.000   0.000   0.000   0.000   0.000
 -0.000  -0.000  -0.000  -0.000   0.000  -0.000  -0.000   0.000   0.000  -0.000   1.762  -0.169   0.000   0.000   0.000  -0.000
  0.000   0.000  -0.000  -0.000   0.000   0.000  -0.000  -0.000  -0.000  -0.000  -0.169   0.021  -0.000  -0.000  -0.000  -0.000
  0.000  -0.000   0.000   0.000  -0.000   0.000   0.000   0.000  -0.000   0.000   0.000  -0.000   0.229  -0.000  -0.000  -0.015
  0.000  -0.000   0.000   0.000   0.000  -0.000   0.000   0.000   0.000  -0.000   0.000  -0.000   0.000   0.229   0.000  -0.000
  0.000  -0.000   0.000   0.000   0.000   0.000   0.000   0.000   0.000  -0.000   0.000  -0.000   0.000   0.000   0.229  -0.000
 -0.000   0.000   0.000   0.000   0.000  -0.000   0.000   0.000   0.000   0.000  -0.000  -0.000  -0.015  -0.000  -0.000   0.001
  0.000   0.000   0.000   0.000   0.000   0.000   0.000   0.000   0.000   0.000   0.000  -0.000   0.000  -0.015   0.000  -0.000
  0.000   0.000  -0.000   0.000   0.000  -0.000  -0.000   0.000   0.000   0.000  -0.000  -0.000   0.000  -0.000  -0.015  -0.000


------------------------ aborting loop because EDIFF is reached ----------------------------------------


 


 total charge     
 
# of ion     s       p       d       tot
----------------------------------------
  1        0.438   0.368   9.164   9.970
  2        0.443   0.364   9.180   9.986
  3        0.442   0.364   9.179   9.986
  4        0.439   0.368   9.164   9.970
------------------------------------------------
tot        1.762   1.464  36.687  39.913
 
    CHARGE:  cpu time    0.37: real time    0.37
    FORLOC:  cpu time    0.01: real time    0.01
    FORNL :  cpu time    1.72: real time    1.72
    STRESS:  cpu time    5.17: real time    5.17
    FORCOR:  cpu time    0.11: real time    0.11
    FORHAR:  cpu time    0.03: real time    0.03
    MIXING:  cpu time    0.00: real time    0.00

  FORCE on cell =-STRESS in cart. coord.  units (eV):
  Direction    XX          YY          ZZ          XY          YZ          ZX
  --------------------------------------------------------------------------------------
  Alpha Z   242.15274   242.15274   242.15274
  Ewald   -1462.16274 -1462.16274 -1462.16274     0.00000     0.00000    -0.00000
  Hartree   457.70155   457.70155   457.70155    -0.00000    -0.00000    -0.00000
  E(xc)    -257.17593  -257.17593  -257.17593     0.00000    -0.00000    -0.00000
  Local     366.68898   366.68898   366.68898     0.00000    -0.00000    -0.00000
  n-local   -79.36409   -87.98081   -89.32046     0.45412     2.85223     1.15644
  augment   379.42993   379.42993   379.42993     0.00000     0.00000     0.00000
  Kinetic   366.18450   357.69841   352.06756    -3.39097     0.02597    -1.48603
  Fock        0.00000     0.00000     0.00000     0.00000     0.00000     0.00000
  -------------------------------------------------------------------------------------
  Total      -0.27043    -0.27043    -0.27043     0.00000    -0.00000     0.00000
  in kB      -8.96659    -8.96659    -8.96659     0.00000    -0.00000     0.00000
  external pressure =       -8.97 kB  Pullay stress =        0.00 kB


 VOLUME and BASIS-vectors are now :
 -----------------------------------------------------------------------------
  energy-cutoff  :      520.00
  volume of cell :       48.32
      direct lattice vectors                 reciprocal lattice vectors
     3.642343844 -0.000000000  0.000000000     0.274548489  0.000000000  0.000000000
    -0.000000000  3.642343844 -0.000000000     0.000000000  0.274548489 -0.000000000
    -0.000000000  0.000000000  3.642343844    -0.000000000  0.000000000  0.274548489

  length of vectors
     3.642343844  3.642343844  3.642343844     0.274548489  0.274548489  0.274548489


 FORCES acting on ions
    electron-ion (+dipol)            ewald-force                    non-local-force                 convergence-correction
 -----------------------------------------------------------------------------------------------
   -.173E-12 0.215E-13 0.571E-14   -.152E-13 -.199E-14 0.147E-15   -.220E-18 0.217E-18 0.000E+00   -.575E-13 -.816E-13 -.958E-13
   -.176E-12 0.693E-12 0.667E-12   -.157E-13 0.128E-13 0.558E-14   -.209E-18 0.217E-18 0.000E+00   -.658E-13 -.115E-12 -.490E-13
   0.500E-12 0.157E-13 0.671E-12   0.155E-13 -.124E-13 0.564E-14   -.217E-18 0.217E-18 0.000E+00   -.832E-13 -.858E-13 -.631E-13
   0.498E-12 0.695E-12 0.639E-14   0.151E-13 0.233E-14 -.111E-13   -.217E-18 0.217E-18 0.000E+00   -.573E-13 -.103E-12 -.885E-13
 -----------------------------------------------------------------------------------------------
   0.650E-12 0.142E-11 0.135E-11   -.275E-15 0.681E-15 0.243E-15   -.862E-18 0.867E-18 0.000E+00   -.264E-12 -.385E-12 -.296E-12
 
 
 POSITION                                       TOTAL-FORCE (eV/Angst)
 -----------------------------------------------------------------------------------
     -0.00000     -0.00000     -0.00000        -0.000000     -0.000000      0.000000
     -0.00000      1.82117      1.82117         0.000000      0.000000     -0.000000
      1.82117     -0.00000      1.82117        -0.000000     -0.000000     -0.000000
      1.82117      1.82117     -0.00000         0.000000     -0.000000     -0.000000
 -----------------------------------------------------------------------------------
    total drift:                                0.000000      0.000000      0.000000


--------------------------------------------------------------------------------------------------------



  FREE ENERGIE OF THE ION-ELECTRON SYSTEM (eV)
  ---------------------------------------------------
  free  energy   TOTEN  =       -14.91203703 eV

  energy  without entropy=      -14.91203703  energy(sigma->0) =      -14.91203703
 
 d Force = 0.0000000E+00[ 0.000E+00, 0.000E+00]  d Energy = 0.6145679E-02-0.615E-02
 d Force = 0.0000000E+00[ 0.000E+00, 0.000E+00]  d Ewald  = 0.1705873E+02-0.171E+02


--------------------------------------------------------------------------------------------------------


    POTLOK:  cpu time    0.13: real time    0.13


--------------------------------------------------------------------------------------------------------




--------------------------------------------------------------------------------------------------------


  
 reached required accuracy - stopping structural energy minimisation
     LOOP+:  cpu time   26.76: real time   26.80
    4ORBIT:  cpu time    0.00: real time    0.00
 


 total charge     
 
# of ion     s       p       d       tot
----------------------------------------
  1        0.438   0.368   9.164   9.970
  2        0.443   0.364   9.180   9.986
  3        0.442   0.364   9.179   9.986
  4        0.439   0.368   9.164   9.970
------------------------------------------------
tot        1.762   1.464  36.687  39.913
 
 BZINTS: Fermi energy:  7.334090; 44.000000 electrons
         Band energy: 190.830683;  BLOECHL correction: -0.137836

 total amount of memory used by VASP on root node    55724. kBytes
========================================================================

   base      :      30000. kBytes
   nonlr-proj:       4827. kBytes
   grid      :       9520. kBytes
   one-center:         62. kBytes
   wavefun   :      11315. kBytes
 
  
  
 General timing and accounting informations for this job:
 ========================================================
  
                  Total CPU time used (sec):      137.624
                            User time (sec):      137.561
                          System time (sec):        0.063
                         Elapsed time (sec):      137.826
  
                   Maximum memory used (kb):       66688.
                   Average memory used (kb):           0.
  
                          Minor page faults:        31294
                          Major page faults:            1
                 Voluntary context switches:          426
