PROCAR lm decomposed
# of k-points:   20         # of bands:  26         # of ions:   4

 k-point    1 :    0.06250000 0.06250000 0.06250000     weight = 0.01562500

band   1 # energy   -1.73214221 # occ.  2.00000000
 
ion      s     py     pz     px    dxy    dyz    dz2    dxz    dx2    tot
  1  0.141  0.001  0.001  0.001  0.000  0.000  0.000  0.000  0.000  0.143
  2  0.141  0.001  0.001  0.001  0.000  0.000  0.000  0.000  0.000  0.143
  3  0.141  0.001  0.001  0.001  0.000  0.000  0.000  0.000  0.000  0.143
  4  0.141  0.001  0.001  0.001  0.000  0.000  0.000  0.000  0.000  0.143
tot  0.566  0.002  0.002  0.002  0.000  0.000  0.000  0.000  0.000  0.573
 
band   2 # energy    2.60333929 # occ.  2.00000000
 
ion      s     py     pz     px    dxy    dyz    dz2    dxz    dx2    tot
  1  0.024  0.000  0.000  0.000  0.000  0.000  0.071  0.000  0.004  0.100
  2  0.002  0.000  0.000  0.001  0.000  0.000  0.070  0.000  0.207  0.281
  3  0.005  0.001  0.000  0.000  0.000  0.000  0.044  0.000  0.207  0.257
  4  0.012  0.000  0.001  0.000  0.000  0.000  0.178  0.000  0.004  0.196
tot  0.043  0.001  0.001  0.002  0.000  0.000  0.363  0.000  0.422  0.833
 
band   3 # energy    2.60333964 # occ.  2.00000000
 
ion      s     py     pz     px    dxy    dyz    dz2    dxz    dx2    tot
  1  0.000  0.001  0.000  0.001  0.000  0.000  0.012  0.000  0.282  0.296
  2  0.019  0.000  0.000  0.000  0.000  0.000  0.113  0.000  0.006  0.139
  3  0.023  0.000  0.000  0.000  0.000  0.000  0.083  0.000  0.006  0.112
  4  0.001  0.001  0.000  0.001  0.000  0.000  0.001  0.000  0.282  0.285
tot  0.044  0.002  0.001  0.002  0.000  0.000  0.209  0.000  0.575  0.833
 
band   4 # energy    2.60333964 # occ.  2.00000000
 
ion      s     py     pz     px    dxy    dyz    dz2    dxz    dx2    tot
  1  0.008  0.000  0.001  0.000  0.000  0.000  0.211  0.000  0.008  0.229
  2  0.011  0.001  0.000  0.000  0.000  0.000  0.111  0.000  0.082  0.205
  3  0.005  0.000  0.001  0.001  0.000  0.000  0.167  0.000  0.082  0.256
  4  0.019  0.000  0.000  0.000  0.000  0.000  0.116  0.000  0.008  0.144
tot  0.044  0.001  0.002  0.001  0.000  0.000  0.605  0.000  0.180  0.833
 
band   5 # energy    3.03841027 # occ.  2.00000000
 
ion      s     py     pz     px    dxy    dyz    dz2    dxz    dx2    tot
  1  0.000  0.000  0.000  0.000  0.062  0.100  0.000  0.060  0.000  0.223
  2  0.000  0.000  0.000  0.000  0.063  0.103  0.000  0.062  0.000  0.230
  3  0.000  0.000  0.000  0.000  0.063  0.102  0.000  0.063  0.000  0.229
  4  0.000  0.000  0.000  0.000  0.064  0.101  0.000  0.061  0.000  0.226
tot  0.000  0.001  0.001  0.001  0.253  0.406  0.000  0.246  0.000  0.907
 
band   6 # energy    3.03841027 # occ.  2.00000000
 
ion      s     py     pz     px    dxy    dyz    dz2    dxz    dx2    tot
  1  0.000  0.000  0.000  0.000  0.106  0.006  0.000  0.115  0.000  0.228
  2  0.000  0.000  0.000  0.000  0.107  0.007  0.000  0.115  0.000  0.229
  3  0.000  0.000  0.000  0.000  0.104  0.006  0.000  0.113  0.000  0.224
  4  0.000  0.000  0.000  0.000  0.105  0.007  0.000  0.113  0.000  0.225
tot  0.000  0.000  0.001  0.001  0.422  0.027  0.000  0.456  0.000  0.907
 
band   7 # energy    3.03841027 # occ.  2.00000000
 
ion      s     py     pz     px    dxy    dyz    dz2    dxz    dx2    tot
  1  0.000  0.000  0.000  0.000  0.058  0.120  0.000  0.051  0.000  0.229
  2  0.000  0.000  0.000  0.000  0.056  0.116  0.000  0.049  0.000  0.221
  3  0.000  0.000  0.000  0.000  0.059  0.118  0.000  0.050  0.000  0.228
  4  0.000  0.000  0.000  0.000  0.057  0.118  0.000  0.053  0.000  0.229
tot  0.000  0.001  0.001  0.000  0.230  0.472  0.000  0.203  0.000  0.907
 
band   8 # energy    4.31630903 # occ.  2.00000000
 
ion      s     py     pz     px    dxy    dyz    dz2    dxz    dx2    tot
  1  0.000  0.000  0.000  0.000  0.080  0.080  0.000  0.080  0.000  0.241
  2  0.000  0.000  0.000  0.000  0.080  0.080  0.000  0.080  0.000  0.241
  3  0.000  0.000  0.000  0.000  0.080  0.080  0.000  0.080  0.000  0.241
  4  0.000  0.000  0.000  0.000  0.080  0.080  0.000  0.080  0.000  0.241
tot  0.000  0.000  0.000  0.000  0.321  0.321  0.000  0.321  0.000  0.962
 
band   9 # energy    4.37117548 # occ.  2.00000000
 
ion      s     py     pz     px    dxy    dyz    dz2    dxz    dx2    tot
  1  0.000  0.000  0.000  0.000  0.131  0.003  0.000  0.107  0.000  0.241
  2  0.000  0.000  0.000  0.000  0.131  0.003  0.000  0.107  0.000  0.241
  3  0.000  0.000  0.000  0.000  0.131  0.003  0.000  0.107  0.000  0.241
  4  0.000  0.000  0.000  0.000  0.131  0.003  0.000  0.107  0.000  0.241
tot  0.000  0.000  0.000  0.000  0.526  0.011  0.001  0.427  0.000  0.965
 
band  10 # energy    4.37117548 # occ.  2.00000000
 
ion      s     py     pz     px    dxy    dyz    dz2    dxz    dx2    tot
  1  0.000  0.000  0.000  0.000  0.029  0.158  0.000  0.054  0.000  0.241
  2  0.000  0.000  0.000  0.000  0.029  0.158  0.000  0.054  0.000  0.241
  3  0.000  0.000  0.000  0.000  0.029  0.158  0.000  0.054  0.000  0.241
  4  0.000  0.000  0.000  0.000  0.029  0.158  0.000  0.054  0.000  0.241
tot  0.000  0.000  0.000  0.000  0.117  0.631  0.000  0.216  0.001  0.965
 
band  11 # energy    5.13354720 # occ.  2.00000000
 
ion      s     py     pz     px    dxy    dyz    dz2    dxz    dx2    tot
  1  0.000  0.000  0.000  0.000  0.000  0.000  0.169  0.000  0.077  0.246
  2  0.000  0.000  0.000  0.000  0.000  0.000  0.169  0.000  0.077  0.246
  3  0.000  0.000  0.000  0.000  0.000  0.000  0.169  0.000  0.077  0.246
  4  0.000  0.000  0.000  0.000  0.000  0.000  0.169  0.000  0.077  0.246
tot  0.000  0.000  0.000  0.000  0.000  0.000  0.678  0.000  0.307  0.985
 
band  12 # energy    5.13354720 # occ.  2.00000000
 
ion      s     py     pz     px    dxy    dyz    dz2    dxz    dx2    tot
  1  0.000  0.000  0.000  0.000  0.000  0.000  0.077  0.000  0.169  0.246
  2  0.000  0.000  0.000  0.000  0.000  0.000  0.077  0.000  0.169  0.246
  3  0.000  0.000  0.000  0.000  0.000  0.000  0.077  0.000  0.169  0.246
  4  0.000  0.000  0.000  0.000  0.000  0.000  0.077  0.000  0.169  0.246
tot  0.000  0.000  0.000  0.000  0.000  0.001  0.307  0.000  0.678  0.985
 
band  13 # energy    5.63257431 # occ.  2.00000000
 
ion      s     py     pz     px    dxy    dyz    dz2    dxz    dx2    tot
  1  0.000  0.000  0.000  0.000  0.000  0.001  0.013  0.001  0.036  0.051
  2  0.000  0.000  0.000  0.000  0.005  0.001  0.220  0.004  0.057  0.287
  3  0.000  0.000  0.000  0.000  0.005  0.006  0.220  0.001  0.121  0.352
  4  0.000  0.000  0.000  0.000  0.000  0.006  0.013  0.004  0.280  0.303
tot  0.000  0.000  0.000  0.000  0.011  0.014  0.465  0.009  0.494  0.993
 
band  14 # energy    5.63257431 # occ.  2.00000000
 
ion      s     py     pz     px    dxy    dyz    dz2    dxz    dx2    tot
  1  0.000  0.000  0.000  0.000  0.003  0.003  0.145  0.006  0.207  0.365
  2  0.000  0.000  0.000  0.000  0.002  0.003  0.083  0.000  0.066  0.154
  3  0.000  0.000  0.000  0.000  0.002  0.002  0.083  0.006  0.206  0.300
  4  0.000  0.000  0.000  0.000  0.003  0.002  0.145  0.000  0.023  0.174
tot  0.000  0.000  0.000  0.000  0.011  0.011  0.456  0.013  0.502  0.993
 
band  15 # energy    5.63257431 # occ.  2.00000000
 
ion      s     py     pz     px    dxy    dyz    dz2    dxz    dx2    tot
  1  0.000  0.000  0.000  0.000  0.005  0.005  0.202  0.002  0.116  0.329
  2  0.000  0.000  0.000  0.000  0.001  0.005  0.057  0.004  0.236  0.304
  3  0.000  0.000  0.000  0.000  0.001  0.000  0.057  0.002  0.033  0.093
  4  0.000  0.000  0.000  0.000  0.005  0.000  0.202  0.004  0.057  0.268
tot  0.000  0.000  0.000  0.000  0.012  0.009  0.517  0.012  0.442  0.993
 
band  16 # energy    5.65427896 # occ.  2.00000000
 
ion      s     py     pz     px    dxy    dyz    dz2    dxz    dx2    tot
  1  0.000  0.004  0.000  0.001  0.011  0.074  0.000  0.041  0.000  0.132
  2  0.000  0.004  0.000  0.002  0.221  0.078  0.000  0.031  0.000  0.337
  3  0.000  0.004  0.000  0.002  0.222  0.096  0.000  0.046  0.000  0.371
  4  0.000  0.004  0.000  0.001  0.011  0.092  0.000  0.027  0.000  0.135
tot  0.001  0.016  0.001  0.006  0.466  0.340  0.000  0.144  0.001  0.975
 
band  17 # energy    5.65427898 # occ.  2.00000000
 
ion      s     py     pz     px    dxy    dyz    dz2    dxz    dx2    tot
  1  0.000  0.000  0.004  0.001  0.058  0.071  0.000  0.067  0.000  0.202
  2  0.000  0.000  0.004  0.002  0.013  0.072  0.000  0.162  0.000  0.253
  3  0.000  0.000  0.004  0.001  0.012  0.101  0.000  0.066  0.000  0.186
  4  0.000  0.000  0.004  0.002  0.060  0.104  0.000  0.163  0.000  0.335
tot  0.001  0.001  0.016  0.006  0.144  0.349  0.001  0.458  0.000  0.975
 
band  18 # energy    5.65427907 # occ.  2.00000000
 
ion      s     py     pz     px    dxy    dyz    dz2    dxz    dx2    tot
  1  0.001  0.002  0.002  0.003  0.168  0.092  0.000  0.130  0.000  0.397
  2  0.000  0.001  0.002  0.002  0.003  0.088  0.000  0.045  0.000  0.141
  3  0.000  0.001  0.002  0.002  0.004  0.040  0.000  0.126  0.000  0.175
  4  0.000  0.002  0.001  0.003  0.166  0.042  0.000  0.047  0.000  0.261
tot  0.001  0.006  0.006  0.010  0.341  0.262  0.001  0.348  0.001  0.975
 
band  19 # energy    5.80040844 # occ.  2.00000000
 
ion      s     py     pz     px    dxy    dyz    dz2    dxz    dx2    tot
  1  0.000  0.000  0.000  0.000  0.116  0.013  0.006  0.179  0.005  0.319
  2  0.000  0.000  0.000  0.000  0.105  0.013  0.006  0.058  0.001  0.183
  3  0.000  0.000  0.000  0.000  0.105  0.010  0.006  0.179  0.005  0.305
  4  0.000  0.000  0.000  0.000  0.116  0.010  0.006  0.058  0.000  0.191
tot  0.000  0.000  0.000  0.000  0.441  0.045  0.024  0.475  0.011  0.997
 
band  20 # energy    5.80040844 # occ.  2.00000000
 
ion      s     py     pz     px    dxy    dyz    dz2    dxz    dx2    tot
  1  0.000  0.000  0.000  0.000  0.053  0.107  0.003  0.050  0.005  0.217
  2  0.000  0.000  0.000  0.000  0.035  0.107  0.002  0.110  0.007  0.262
  3  0.000  0.000  0.000  0.000  0.035  0.126  0.002  0.050  0.006  0.219
  4  0.000  0.000  0.000  0.000  0.053  0.126  0.003  0.110  0.008  0.299
tot  0.000  0.000  0.000  0.000  0.177  0.466  0.010  0.319  0.025  0.997
 
band  21 # energy    5.80040844 # occ.  2.00000000
 
ion      s     py     pz     px    dxy    dyz    dz2    dxz    dx2    tot
  1  0.000  0.000  0.000  0.000  0.072  0.120  0.004  0.012  0.003  0.211
  2  0.000  0.000  0.000  0.000  0.100  0.120  0.005  0.072  0.005  0.303
  3  0.000  0.000  0.000  0.000  0.100  0.105  0.005  0.012  0.002  0.224
  4  0.000  0.000  0.000  0.000  0.072  0.105  0.004  0.072  0.005  0.258
tot  0.000  0.000  0.000  0.000  0.344  0.450  0.018  0.168  0.016  0.997
 
band  22 # energy    8.75637618 # occ. -0.27912846
 
ion      s     py     pz     px    dxy    dyz    dz2    dxz    dx2    tot
  1  0.006  0.004  0.089  0.034  0.003  0.004  0.008  0.003  0.001  0.152
  2  0.009  0.006  0.087  0.033  0.001  0.004  0.004  0.008  0.003  0.154
  3  0.005  0.005  0.088  0.035  0.001  0.005  0.006  0.003  0.003  0.151
  4  0.015  0.004  0.086  0.032  0.003  0.005  0.004  0.008  0.001  0.158
tot  0.035  0.019  0.350  0.134  0.007  0.017  0.023  0.023  0.007  0.615
 
band  23 # energy    8.75637617 # occ.  0.00000000
 
ion      s     py     pz     px    dxy    dyz    dz2    dxz    dx2    tot
  1  0.001  0.090  0.002  0.038  0.001  0.004  0.000  0.002  0.010  0.148
  2  0.015  0.085  0.003  0.034  0.011  0.004  0.004  0.001  0.001  0.158
  3  0.018  0.085  0.002  0.033  0.011  0.005  0.003  0.002  0.001  0.160
  4  0.001  0.090  0.002  0.038  0.001  0.005  0.000  0.001  0.010  0.149
tot  0.035  0.350  0.010  0.143  0.023  0.017  0.008  0.007  0.022  0.615
 
band  24 # energy    8.75637641 # occ.  0.00000000
 
ion      s     py     pz     px    dxy    dyz    dz2    dxz    dx2    tot
  1  0.020  0.031  0.034  0.054  0.008  0.005  0.003  0.006  0.000  0.161
  2  0.002  0.035  0.036  0.059  0.000  0.004  0.003  0.002  0.008  0.149
  3  0.004  0.036  0.035  0.057  0.000  0.002  0.002  0.006  0.008  0.150
  4  0.010  0.032  0.037  0.056  0.008  0.002  0.007  0.002  0.000  0.154
tot  0.035  0.135  0.142  0.226  0.017  0.013  0.014  0.017  0.016  0.615
 
band  25 # energy   14.70713992 # occ.  0.00000000
 
ion      s     py     pz     px    dxy    dyz    dz2    dxz    dx2    tot
  1  0.042  0.000  0.005  0.004  0.000  0.000  0.061  0.000  0.031  0.144
  2  0.156  0.001  0.008  0.007  0.000  0.000  0.028  0.000  0.018  0.218
  3  0.045  0.000  0.005  0.004  0.000  0.000  0.074  0.000  0.018  0.146
  4  0.115  0.000  0.007  0.006  0.000  0.000  0.032  0.000  0.031  0.192
tot  0.358  0.003  0.026  0.021  0.000  0.000  0.195  0.000  0.098  0.700
 
band  26 # energy   14.70713810 # occ.  0.00000000
 
ion      s     py     pz     px    dxy    dyz    dz2    dxz    dx2    tot
  1  0.026  0.006  0.002  0.001  0.000  0.000  0.022  0.000  0.077  0.134
  2  0.097  0.009  0.001  0.003  0.000  0.000  0.055  0.000  0.015  0.180
  3  0.183  0.010  0.004  0.004  0.000  0.000  0.020  0.000  0.015  0.236
  4  0.052  0.008  0.002  0.000  0.000  0.000  0.012  0.000  0.077  0.150
tot  0.358  0.033  0.009  0.007  0.000  0.000  0.109  0.000  0.184  0.700
 

 k-point    2 :    0.18750000 0.06250000 0.06250000     weight = 0.04687500

band   1 # energy   -1.36293611 # occ.  2.00000000
 
ion      s     py     pz     px    dxy    dyz    dz2    dxz    dx2    tot
  1  0.137  0.001  0.001  0.005  0.000  0.000  0.000  0.000  0.000  0.143
  2  0.137  0.001  0.001  0.005  0.000  0.000  0.000  0.000  0.000  0.143
  3  0.137  0.001  0.001  0.005  0.000  0.000  0.000  0.000  0.000  0.143
  4  0.137  0.001  0.001  0.005  0.000  0.000  0.000  0.000  0.000  0.143
tot  0.547  0.002  0.002  0.020  0.000  0.000  0.000  0.000  0.000  0.573
 
band   2 # energy    2.57255511 # occ.  2.00000000
 
ion      s     py     pz     px    dxy    dyz    dz2    dxz    dx2    tot
  1  0.018  0.000  0.000  0.006  0.000  0.000  0.044  0.000  0.132  0.201
  2  0.018  0.000  0.000  0.006  0.000  0.000  0.044  0.000  0.132  0.201
  3  0.018  0.000  0.000  0.006  0.000  0.000  0.044  0.000  0.132  0.201
  4  0.018  0.000  0.000  0.006  0.000  0.000  0.044  0.000  0.132  0.201
tot  0.073  0.001  0.001  0.025  0.001  0.001  0.175  0.001  0.526  0.804
 
band   3 # energy    2.76643474 # occ.  2.00000000
 
ion      s     py     pz     px    dxy    dyz    dz2    dxz    dx2    tot
  1  0.016  0.000  0.000  0.003  0.000  0.000  0.044  0.000  0.058  0.122
  2  0.016  0.000  0.000  0.003  0.000  0.000  0.044  0.000  0.058  0.122
  3  0.001  0.001  0.001  0.000  0.001  0.000  0.222  0.001  0.070  0.298
  4  0.001  0.001  0.001  0.000  0.001  0.000  0.222  0.001  0.070  0.298
tot  0.035  0.001  0.002  0.008  0.003  0.000  0.533  0.003  0.256  0.840
 
band   4 # energy    2.76643474 # occ.  2.00000000
 
ion      s     py     pz     px    dxy    dyz    dz2    dxz    dx2    tot
  1  0.001  0.001  0.001  0.000  0.001  0.000  0.210  0.001  0.083  0.298
  2  0.001  0.001  0.001  0.000  0.001  0.000  0.210  0.001  0.083  0.298
  3  0.016  0.000  0.000  0.003  0.000  0.000  0.032  0.000  0.070  0.122
  4  0.016  0.000  0.000  0.003  0.000  0.000  0.032  0.000  0.070  0.122
tot  0.035  0.002  0.001  0.008  0.003  0.000  0.484  0.003  0.305  0.840
 
band   5 # energy    3.13184414 # occ.  2.00000000
 
ion      s     py     pz     px    dxy    dyz    dz2    dxz    dx2    tot
  1  0.000  0.000  0.000  0.000  0.000  0.227  0.000  0.000  0.000  0.228
  2  0.000  0.000  0.000  0.000  0.000  0.227  0.000  0.000  0.000  0.228
  3  0.000  0.000  0.000  0.000  0.000  0.227  0.000  0.000  0.000  0.228
  4  0.000  0.000  0.000  0.000  0.000  0.227  0.000  0.000  0.000  0.228
tot  0.000  0.001  0.001  0.000  0.001  0.907  0.000  0.001  0.001  0.911
 
band   6 # energy    3.13917699 # occ.  2.00000000
 
ion      s     py     pz     px    dxy    dyz    dz2    dxz    dx2    tot
  1  0.000  0.000  0.002  0.000  0.023  0.000  0.001  0.201  0.001  0.228
  2  0.000  0.000  0.002  0.000  0.023  0.000  0.001  0.201  0.001  0.228
  3  0.000  0.000  0.002  0.000  0.021  0.000  0.000  0.200  0.001  0.224
  4  0.000  0.000  0.002  0.000  0.021  0.000  0.000  0.200  0.001  0.224
tot  0.000  0.001  0.008  0.001  0.089  0.001  0.002  0.802  0.003  0.905
 
band   7 # energy    3.13917699 # occ.  2.00000000
 
ion      s     py     pz     px    dxy    dyz    dz2    dxz    dx2    tot
  1  0.000  0.002  0.000  0.000  0.200  0.000  0.001  0.021  0.000  0.224
  2  0.000  0.002  0.000  0.000  0.200  0.000  0.001  0.021  0.000  0.224
  3  0.000  0.002  0.000  0.000  0.201  0.000  0.001  0.023  0.000  0.228
  4  0.000  0.002  0.000  0.000  0.201  0.000  0.001  0.023  0.000  0.228
tot  0.000  0.008  0.001  0.001  0.802  0.001  0.004  0.089  0.000  0.905
 
band   8 # energy    4.22085343 # occ.  2.00000000
 
ion      s     py     pz     px    dxy    dyz    dz2    dxz    dx2    tot
  1  0.000  0.000  0.000  0.000  0.015  0.210  0.000  0.015  0.000  0.239
  2  0.000  0.000  0.000  0.000  0.015  0.210  0.000  0.015  0.000  0.239
  3  0.000  0.000  0.000  0.000  0.015  0.210  0.000  0.015  0.000  0.239
  4  0.000  0.000  0.000  0.000  0.015  0.210  0.000  0.015  0.000  0.239
tot  0.000  0.001  0.001  0.000  0.058  0.839  0.000  0.058  0.000  0.957
 
band   9 # energy    4.44679072 # occ.  2.00000000
 
ion      s     py     pz     px    dxy    dyz    dz2    dxz    dx2    tot
  1  0.000  0.000  0.000  0.000  0.105  0.030  0.000  0.105  0.001  0.241
  2  0.000  0.000  0.000  0.000  0.105  0.030  0.000  0.105  0.001  0.241
  3  0.000  0.000  0.000  0.000  0.105  0.030  0.000  0.105  0.001  0.241
  4  0.000  0.000  0.000  0.000  0.105  0.030  0.000  0.105  0.001  0.241
tot  0.000  0.000  0.000  0.000  0.420  0.118  0.002  0.420  0.005  0.966
 
band  10 # energy    4.44969925 # occ.  2.00000000
 
ion      s     py     pz     px    dxy    dyz    dz2    dxz    dx2    tot
  1  0.000  0.000  0.000  0.000  0.119  0.000  0.002  0.119  0.001  0.241
  2  0.000  0.000  0.000  0.000  0.119  0.000  0.002  0.119  0.001  0.241
  3  0.000  0.000  0.000  0.000  0.119  0.000  0.002  0.119  0.001  0.241
  4  0.000  0.000  0.000  0.000  0.119  0.000  0.002  0.119  0.001  0.241
tot  0.000  0.001  0.001  0.000  0.477  0.000  0.007  0.477  0.002  0.966
 
band  11 # energy    5.04447087 # occ.  2.00000000
 
ion      s     py     pz     px    dxy    dyz    dz2    dxz    dx2    tot
  1  0.000  0.000  0.000  0.000  0.001  0.000  0.061  0.001  0.183  0.245
  2  0.000  0.000  0.000  0.000  0.001  0.000  0.061  0.001  0.183  0.245
  3  0.000  0.000  0.000  0.000  0.001  0.000  0.061  0.001  0.183  0.245
  4  0.000  0.000  0.000  0.000  0.001  0.000  0.061  0.001  0.183  0.245
tot  0.000  0.000  0.000  0.000  0.003  0.001  0.243  0.003  0.730  0.981
 
band  12 # energy    5.17818812 # occ.  2.00000000
 
ion      s     py     pz     px    dxy    dyz    dz2    dxz    dx2    tot
  1  0.000  0.000  0.000  0.000  0.001  0.000  0.183  0.001  0.061  0.247
  2  0.000  0.000  0.000  0.000  0.001  0.000  0.183  0.001  0.061  0.247
  3  0.000  0.000  0.000  0.000  0.001  0.000  0.183  0.001  0.061  0.247
  4  0.000  0.000  0.000  0.000  0.001  0.000  0.183  0.001  0.061  0.247
tot  0.000  0.000  0.000  0.000  0.005  0.000  0.732  0.005  0.244  0.986
 
band  13 # energy    5.18056109 # occ.  2.00000000
 
ion      s     py     pz     px    dxy    dyz    dz2    dxz    dx2    tot
  1  0.000  0.009  0.005  0.000  0.131  0.006  0.005  0.063  0.001  0.220
  2  0.000  0.009  0.005  0.000  0.131  0.006  0.005  0.063  0.001  0.220
  3  0.001  0.009  0.005  0.000  0.137  0.024  0.003  0.068  0.002  0.248
  4  0.001  0.009  0.005  0.000  0.137  0.024  0.003  0.068  0.002  0.248
tot  0.003  0.037  0.018  0.000  0.536  0.059  0.015  0.262  0.007  0.937
 
band  14 # energy    5.18056113 # occ.  2.00000000
 
ion      s     py     pz     px    dxy    dyz    dz2    dxz    dx2    tot
  1  0.001  0.005  0.009  0.000  0.068  0.024  0.001  0.137  0.004  0.248
  2  0.001  0.005  0.009  0.000  0.068  0.024  0.001  0.137  0.004  0.248
  3  0.000  0.005  0.009  0.000  0.063  0.006  0.003  0.131  0.003  0.220
  4  0.000  0.005  0.009  0.000  0.063  0.006  0.003  0.131  0.003  0.220
tot  0.003  0.018  0.037  0.000  0.262  0.059  0.009  0.536  0.014  0.937
 
band  15 # energy    5.45848078 # occ.  2.00000000
 
ion      s     py     pz     px    dxy    dyz    dz2    dxz    dx2    tot
  1  0.003  0.000  0.000  0.009  0.110  0.000  0.001  0.110  0.004  0.238
  2  0.003  0.000  0.000  0.009  0.110  0.000  0.001  0.110  0.004  0.238
  3  0.003  0.000  0.000  0.009  0.110  0.000  0.001  0.110  0.004  0.238
  4  0.003  0.000  0.000  0.009  0.110  0.000  0.001  0.110  0.004  0.238
tot  0.012  0.001  0.001  0.036  0.439  0.002  0.006  0.439  0.018  0.953
 
band  16 # energy    5.52092447 # occ.  2.00000000
 
ion      s     py     pz     px    dxy    dyz    dz2    dxz    dx2    tot
  1  0.000  0.000  0.000  0.000  0.001  0.003  0.109  0.001  0.046  0.159
  2  0.000  0.000  0.000  0.000  0.001  0.003  0.109  0.001  0.046  0.159
  3  0.000  0.000  0.000  0.001  0.001  0.011  0.122  0.001  0.198  0.334
  4  0.000  0.000  0.000  0.001  0.001  0.011  0.122  0.001  0.198  0.334
tot  0.000  0.001  0.001  0.002  0.005  0.028  0.460  0.002  0.488  0.987
 
band  17 # energy    5.52092447 # occ.  2.00000000
 
ion      s     py     pz     px    dxy    dyz    dz2    dxz    dx2    tot
  1  0.000  0.000  0.000  0.001  0.001  0.011  0.058  0.001  0.262  0.334
  2  0.000  0.000  0.000  0.001  0.001  0.011  0.058  0.001  0.262  0.334
  3  0.000  0.000  0.000  0.000  0.001  0.003  0.045  0.001  0.109  0.159
  4  0.000  0.000  0.000  0.000  0.001  0.003  0.045  0.001  0.109  0.159
tot  0.000  0.001  0.001  0.002  0.002  0.028  0.207  0.005  0.742  0.987
 
band  18 # energy    5.53774419 # occ.  2.00000000
 
ion      s     py     pz     px    dxy    dyz    dz2    dxz    dx2    tot
  1  0.000  0.000  0.000  0.000  0.042  0.000  0.122  0.042  0.041  0.247
  2  0.000  0.000  0.000  0.000  0.042  0.000  0.122  0.042  0.041  0.247
  3  0.000  0.000  0.000  0.000  0.042  0.000  0.122  0.042  0.041  0.247
  4  0.000  0.000  0.000  0.000  0.042  0.000  0.122  0.042  0.041  0.247
tot  0.000  0.001  0.001  0.000  0.170  0.000  0.486  0.170  0.162  0.990
 
band  19 # energy    5.71738619 # occ.  2.00000000
 
ion      s     py     pz     px    dxy    dyz    dz2    dxz    dx2    tot
  1  0.000  0.000  0.000  0.000  0.081  0.000  0.065  0.081  0.022  0.249
  2  0.000  0.000  0.000  0.000  0.081  0.000  0.065  0.081  0.022  0.249
  3  0.000  0.000  0.000  0.000  0.081  0.000  0.065  0.081  0.022  0.249
  4  0.000  0.000  0.000  0.000  0.081  0.000  0.065  0.081  0.022  0.249
tot  0.000  0.000  0.000  0.000  0.325  0.000  0.259  0.325  0.086  0.995
 
band  20 # energy    5.79163601 # occ.  2.00000000
 
ion      s     py     pz     px    dxy    dyz    dz2    dxz    dx2    tot
  1  0.000  0.000  0.000  0.000  0.006  0.362  0.001  0.013  0.005  0.387
  2  0.000  0.000  0.000  0.000  0.006  0.362  0.001  0.013  0.005  0.387
  3  0.000  0.000  0.000  0.000  0.008  0.086  0.001  0.015  0.002  0.112
  4  0.000  0.000  0.000  0.000  0.008  0.086  0.001  0.015  0.002  0.112
tot  0.000  0.000  0.000  0.000  0.026  0.895  0.004  0.056  0.014  0.996
 
band  21 # energy    5.79163601 # occ.  2.00000000
 
ion      s     py     pz     px    dxy    dyz    dz2    dxz    dx2    tot
  1  0.000  0.000  0.000  0.000  0.015  0.086  0.002  0.008  0.001  0.112
  2  0.000  0.000  0.000  0.000  0.015  0.086  0.002  0.008  0.001  0.112
  3  0.000  0.000  0.000  0.000  0.013  0.362  0.002  0.006  0.004  0.387
  4  0.000  0.000  0.000  0.000  0.013  0.362  0.002  0.006  0.004  0.387
tot  0.000  0.000  0.000  0.000  0.056  0.895  0.009  0.026  0.010  0.996
 
band  22 # energy    7.20026960 # occ.  1.17538101
 
ion      s     py     pz     px    dxy    dyz    dz2    dxz    dx2    tot
  1  0.033  0.000  0.000  0.076  0.014  0.000  0.010  0.014  0.029  0.176
  2  0.033  0.000  0.000  0.076  0.014  0.000  0.010  0.014  0.029  0.176
  3  0.033  0.000  0.000  0.076  0.014  0.000  0.010  0.014  0.029  0.176
  4  0.033  0.000  0.000  0.076  0.014  0.000  0.010  0.014  0.029  0.176
tot  0.130  0.001  0.001  0.304  0.055  0.000  0.039  0.055  0.118  0.703
 
band  23 # energy    9.53333844 # occ.  0.00000000
 
ion      s     py     pz     px    dxy    dyz    dz2    dxz    dx2    tot
  1  0.017  0.043  0.066  0.001  0.012  0.006  0.002  0.018  0.002  0.166
  2  0.017  0.043  0.066  0.001  0.012  0.006  0.002  0.018  0.002  0.166
  3  0.002  0.048  0.071  0.000  0.011  0.001  0.009  0.017  0.002  0.161
  4  0.002  0.048  0.071  0.000  0.011  0.001  0.009  0.017  0.002  0.161
tot  0.038  0.181  0.273  0.002  0.046  0.014  0.021  0.070  0.008  0.653
 
band  24 # energy    9.53333844 # occ.  0.00000000
 
ion      s     py     pz     px    dxy    dyz    dz2    dxz    dx2    tot
  1  0.002  0.071  0.048  0.000  0.017  0.001  0.007  0.011  0.003  0.161
  2  0.002  0.071  0.048  0.000  0.017  0.001  0.007  0.011  0.003  0.161
  3  0.017  0.066  0.043  0.001  0.018  0.006  0.001  0.012  0.003  0.166
  4  0.017  0.066  0.043  0.001  0.018  0.006  0.001  0.012  0.003  0.166
tot  0.038  0.273  0.181  0.002  0.070  0.014  0.017  0.046  0.012  0.653
 
band  25 # energy   14.88465237 # occ.  0.00000000
 
ion      s     py     pz     px    dxy    dyz    dz2    dxz    dx2    tot
  1  0.165  0.010  0.010  0.010  0.000  0.000  0.010  0.000  0.024  0.228
  2  0.165  0.010  0.010  0.010  0.000  0.000  0.010  0.000  0.024  0.228
  3  0.003  0.004  0.004  0.000  0.000  0.000  0.079  0.000  0.026  0.116
  4  0.003  0.004  0.004  0.000  0.000  0.000  0.079  0.000  0.026  0.116
tot  0.335  0.027  0.027  0.020  0.001  0.000  0.176  0.001  0.100  0.688
 
band  26 # energy   14.88463348 # occ.  0.00000000
 
ion      s     py     pz     px    dxy    dyz    dz2    dxz    dx2    tot
  1  0.003  0.004  0.004  0.000  0.000  0.000  0.078  0.000  0.027  0.116
  2  0.003  0.004  0.004  0.000  0.000  0.000  0.078  0.000  0.027  0.116
  3  0.165  0.010  0.010  0.010  0.000  0.000  0.009  0.000  0.024  0.228
  4  0.165  0.010  0.010  0.010  0.000  0.000  0.009  0.000  0.024  0.228
tot  0.335  0.027  0.027  0.020  0.001  0.000  0.174  0.001  0.102  0.688
 

 k-point    3 :    0.31250000 0.06250000 0.06250000     weight = 0.04687500

band   1 # energy   -0.64516112 # occ.  2.00000000
 
ion      s     py     pz     px    dxy    dyz    dz2    dxz    dx2    tot
  1  0.127  0.001  0.001  0.014  0.000  0.000  0.000  0.000  0.001  0.144
  2  0.127  0.001  0.001  0.014  0.000  0.000  0.000  0.000  0.001  0.144
  3  0.127  0.001  0.001  0.014  0.000  0.000  0.000  0.000  0.001  0.144
  4  0.127  0.001  0.001  0.014  0.000  0.000  0.000  0.000  0.001  0.144
tot  0.509  0.002  0.002  0.054  0.001  0.000  0.001  0.001  0.004  0.575
 
band   2 # energy    2.30593673 # occ.  2.00000000
 
ion      s     py     pz     px    dxy    dyz    dz2    dxz    dx2    tot
  1  0.043  0.000  0.000  0.021  0.001  0.000  0.028  0.001  0.085  0.180
  2  0.043  0.000  0.000  0.021  0.001  0.000  0.028  0.001  0.085  0.180
  3  0.043  0.000  0.000  0.021  0.001  0.000  0.028  0.001  0.085  0.180
  4  0.043  0.000  0.000  0.021  0.001  0.000  0.028  0.001  0.085  0.180
tot  0.174  0.001  0.001  0.083  0.003  0.001  0.114  0.003  0.341  0.719
 
band   3 # energy    3.03517910 # occ.  2.00000000
 
ion      s     py     pz     px    dxy    dyz    dz2    dxz    dx2    tot
  1  0.005  0.000  0.000  0.004  0.000  0.000  0.091  0.003  0.116  0.220
  2  0.005  0.000  0.000  0.004  0.000  0.000  0.091  0.003  0.116  0.220
  3  0.005  0.000  0.000  0.005  0.000  0.000  0.078  0.003  0.114  0.205
  4  0.005  0.000  0.000  0.005  0.000  0.000  0.078  0.003  0.114  0.205
tot  0.019  0.002  0.000  0.019  0.002  0.000  0.339  0.011  0.459  0.851
 
band   4 # energy    3.03517910 # occ.  2.00000000
 
ion      s     py     pz     px    dxy    dyz    dz2    dxz    dx2    tot
  1  0.005  0.000  0.000  0.005  0.003  0.000  0.182  0.000  0.009  0.205
  2  0.005  0.000  0.000  0.005  0.003  0.000  0.182  0.000  0.009  0.205
  3  0.005  0.000  0.000  0.004  0.003  0.000  0.195  0.000  0.012  0.220
  4  0.005  0.000  0.000  0.004  0.003  0.000  0.195  0.000  0.012  0.220
tot  0.019  0.000  0.002  0.019  0.011  0.000  0.755  0.002  0.043  0.851
 
band   5 # energy    3.30644492 # occ.  2.00000000
 
ion      s     py     pz     px    dxy    dyz    dz2    dxz    dx2    tot
  1  0.000  0.000  0.000  0.000  0.000  0.228  0.000  0.000  0.000  0.229
  2  0.000  0.000  0.000  0.000  0.000  0.228  0.000  0.000  0.000  0.229
  3  0.000  0.000  0.000  0.000  0.000  0.228  0.000  0.000  0.000  0.229
  4  0.000  0.000  0.000  0.000  0.000  0.228  0.000  0.000  0.000  0.229
tot  0.000  0.001  0.001  0.000  0.002  0.911  0.000  0.002  0.001  0.917
 
band   6 # energy    3.34190757 # occ.  2.00000000
 
ion      s     py     pz     px    dxy    dyz    dz2    dxz    dx2    tot
  1  0.000  0.005  0.001  0.000  0.187  0.000  0.003  0.031  0.000  0.228
  2  0.000  0.005  0.001  0.000  0.187  0.000  0.003  0.031  0.000  0.228
  3  0.000  0.005  0.001  0.001  0.185  0.001  0.002  0.029  0.000  0.223
  4  0.000  0.005  0.001  0.001  0.185  0.001  0.002  0.029  0.000  0.223
tot  0.000  0.020  0.003  0.002  0.745  0.002  0.009  0.121  0.001  0.903
 
band   7 # energy    3.34190757 # occ.  2.00000000
 
ion      s     py     pz     px    dxy    dyz    dz2    dxz    dx2    tot
  1  0.000  0.001  0.005  0.001  0.029  0.001  0.001  0.185  0.001  0.223
  2  0.000  0.001  0.005  0.001  0.029  0.001  0.001  0.185  0.001  0.223
  3  0.000  0.001  0.005  0.000  0.031  0.000  0.002  0.187  0.001  0.228
  4  0.000  0.001  0.005  0.000  0.031  0.000  0.002  0.187  0.001  0.228
tot  0.000  0.003  0.020  0.002  0.121  0.002  0.006  0.745  0.004  0.903
 
band   8 # energy    4.03456060 # occ.  2.00000000
 
ion      s     py     pz     px    dxy    dyz    dz2    dxz    dx2    tot
  1  0.000  0.000  0.000  0.000  0.005  0.227  0.000  0.005  0.000  0.237