<?xml version="1.0" encoding="ISO-8859-1"?>
<modeling>
 <generator>
  <i name="program" type="string">vasp </i>
  <i name="version" type="string">5.3.3  </i>
  <i name="subversion" type="string">18Dez12 (build Apr  3 2013 12:00:03) complex                          serial </i>
  <i name="platform" type="string">LinuxIFC </i>
  <i name="date" type="string">2017 10 02 </i>
  <i name="time" type="string">13:54:54 </i>
 </generator>
 <incar>
  <i type="string" name="PREC">accurate</i>
  <i type="string" name="ALGO"> Fast</i>
  <i type="int" name="NELM">   100</i>
  <i type="int" name="IBRION">     2</i>
  <i name="EDIFF">      0.00020000</i>
  <i type="int" name="NSW">    99</i>
  <i type="int" name="ISIF">     3</i>
  <i name="ENCUT">    520.00000000</i>
  <i type="string" name="LREAL"> Auto</i>
  <i type="int" name="ISMEAR">    -5</i>
  <i name="SIGMA">      0.05000000</i>
  <i type="logical" name="LWAVE"> F  </i>
  <i type="logical" name="LORBIT"> F  </i>
  <i type="int" name="NELM">   100</i>
 </incar>
 <kpoints>
  <generation param="Monkhorst-Pack">
   <v type="int" name="divisions">       8        8        8 </v>
   <v name="usershift">      0.00000000       0.00000000       0.00000000 </v>
   <v name="genvec1">      0.12500000       0.00000000       0.00000000 </v>
   <v name="genvec2">      0.00000000       0.12500000       0.00000000 </v>
   <v name="genvec3">      0.00000000       0.00000000       0.12500000 </v>
   <v name="shift">      0.50000000       0.50000000       0.50000000 </v>
  </generation>
  <varray name="kpointlist" >
   <v>       0.06250000       0.06250000       0.06250000 </v>
   <v>       0.18750000       0.06250000       0.06250000 </v>
   <v>       0.31250000       0.06250000       0.06250000 </v>
   <v>       0.43750000       0.06250000       0.06250000 </v>
   <v>       0.18750000       0.18750000       0.06250000 </v>
   <v>       0.31250000       0.18750000       0.06250000 </v>
   <v>       0.43750000       0.18750000       0.06250000 </v>
   <v>       0.31250000       0.31250000       0.06250000 </v>
   <v>       0.43750000       0.31250000       0.06250000 </v>
   <v>       0.43750000       0.43750000       0.06250000 </v>
   <v>       0.18750000       0.18750000       0.18750000 </v>
   <v>       0.31250000       0.18750000       0.18750000 </v>
   <v>       0.43750000       0.18750000       0.18750000 </v>
   <v>       0.31250000       0.31250000       0.18750000 </v>
   <v>       0.43750000       0.31250000       0.18750000 </v>
   <v>       0.43750000       0.43750000       0.18750000 </v>
   <v>       0.31250000       0.31250000       0.31250000 </v>
   <v>       0.43750000       0.31250000       0.31250000 </v>
   <v>       0.43750000       0.43750000       0.31250000 </v>
   <v>       0.43750000       0.43750000       0.43750000 </v>
  </varray>
  <varray name="weights" >
   <v>       0.01562500 </v>
   <v>       0.04687500 </v>
   <v>       0.04687500 </v>
   <v>       0.04687500 </v>
   <v>       0.04687500 </v>
   <v>       0.09375000 </v>
   <v>       0.09375000 </v>
   <v>       0.04687500 </v>
   <v>       0.09375000 </v>
   <v>       0.04687500 </v>
   <v>       0.01562500 </v>
   <v>       0.04687500 </v>
   <v>       0.04687500 </v>
   <v>       0.04687500 </v>
   <v>       0.09375000 </v>
   <v>       0.04687500 </v>
   <v>       0.01562500 </v>
   <v>       0.04687500 </v>
   <v>       0.04687500 </v>
   <v>       0.01562500 </v>
  </varray>
  <varray name="tetrahedronlist"  type="int" >
   <v type="int" >       24        1        2        2        5 </v>
   <v type="int" >       18        2        2        5        5 </v>
   <v type="int" >       12        2        5        5       11 </v>
   <v type="int" >       12        2        3        5        6 </v>
   <v type="int" >       24        2        5        5        6 </v>
   <v type="int" >       12        5        5        6       11 </v>
   <v type="int" >       24        3        5        6        6 </v>
   <v type="int" >       24        5        6        6       12 </v>
   <v type="int" >       24        5        6       11       12 </v>
   <v type="int" >       12        3        4        6        7 </v>
   <v type="int" >       24        3        6        6        7 </v>
   <v type="int" >       12        6        6        7       12 </v>
   <v type="int" >       24        4        6        7        7 </v>
   <v type="int" >       12        6        7        7       13 </v>
   <v type="int" >       12        6        7       12       13 </v>
   <v type="int" >       30        4        4        7        7 </v>
   <v type="int" >       36        4        7        7        7 </v>
   <v type="int" >       12        7        7        7       13 </v>
   <v type="int" >        6        7        7       13       13 </v>
   <v type="int" >       18        1        1        2        2 </v>
   <v type="int" >       24        1        2        2        2 </v>
   <v type="int" >       12        2        2        2        5 </v>
   <v type="int" >       12        5        6        8       11 </v>
   <v type="int" >       12        6        8       11       12 </v>
   <v type="int" >       12        8       11       12       14 </v>
   <v type="int" >       12        6        7        9       12 </v>
   <v type="int" >       12        6        8        9       12 </v>
   <v type="int" >       12        8        9       12       14 </v>
   <v type="int" >       12        7        9       12       13 </v>
   <v type="int" >       12        9       12       13       15 </v>
   <v type="int" >       12        9       12       14       15 </v>
   <v type="int" >       12        7        7        9       13 </v>
   <v type="int" >       12        7        9        9       13 </v>
   <v type="int" >       12        9        9       13       15 </v>
   <v type="int" >       12        7        9       13       13 </v>
   <v type="int" >       12        9       13       13       15 </v>
   <v type="int" >       12        9       13       15       15 </v>
   <v type="int" >       12        6        7        8       13 </v>
   <v type="int" >       12        7        8        9       13 </v>
   <v type="int" >       12        8        9       13       15 </v>
   <v type="int" >       12        6        8       12       13 </v>
   <v type="int" >       12        8       12       13       14 </v>
   <v type="int" >       12        8       13       14       15 </v>
   <v type="int" >       12        6        6        8       12 </v>
   <v type="int" >       12        6        8       12       14 </v>
   <v type="int" >       12        6       11       12       12 </v>
   <v type="int" >       12        6       12       12       14 </v>
   <v type="int" >       12        2        3        5       11 </v>
   <v type="int" >       12        3        5        6       11 </v>
   <v type="int" >       12        3        6       11       12 </v>
   <v type="int" >       12        2        2        3        5 </v>
   <v type="int" >       12        2        3        3        5 </v>
   <v type="int" >       12        3        3        5        6 </v>
   <v type="int" >       12        2        3        5        5 </v>
   <v type="int" >       12        3        5        5        6 </v>
   <v type="int" >       12        8        9       10       14 </v>
   <v type="int" >       12        9       10       14       15 </v>
   <v type="int" >       12       10       14       15       16 </v>
   <v type="int" >       24        9        9       10       15 </v>
   <v type="int" >       12        9       10       10       15 </v>
   <v type="int" >       12       10       10       15       16 </v>
   <v type="int" >       12        9       10       15       15 </v>
   <v type="int" >       12       10       15       15       16 </v>
   <v type="int" >       12       10       15       16       16 </v>
   <v type="int" >       12        8        9        9       15 </v>
   <v type="int" >       12        9       10       15       16 </v>
   <v type="int" >       12        8        9       14       15 </v>
   <v type="int" >       12        9       14       15       15 </v>
   <v type="int" >       24        9       15       15       16 </v>
   <v type="int" >       12        6        7        8       14 </v>
   <v type="int" >       12        7        8        9       14 </v>
   <v type="int" >       12        7        9       14       15 </v>
   <v type="int" >       12        6        7       12       14 </v>
   <v type="int" >       12        7       12       13       14 </v>
   <v type="int" >       12        7       13       14       15 </v>
   <v type="int" >       12        3        4        6       12 </v>
   <v type="int" >       12        4        6        7       12 </v>
   <v type="int" >       12        4        7       12       13 </v>
   <v type="int" >       12        3        3        4        6 </v>
   <v type="int" >       12        3        4        4        6 </v>
   <v type="int" >       12        4        4        6        7 </v>
   <v type="int" >       12        3        4        6        6 </v>
   <v type="int" >       12        4        6        6        7 </v>
   <v type="int" >       12       10       10       10       16 </v>
   <v type="int" >       12       10       10       16       16 </v>
   <v type="int" >       12       10       16       16       16 </v>
   <v type="int" >       12        9        9       10       16 </v>
   <v type="int" >       12        9       10       10       16 </v>
   <v type="int" >       12        9       10       16       16 </v>
   <v type="int" >       12        9        9       15       16 </v>
   <v type="int" >       12        9       15       16       16 </v>
   <v type="int" >       12        7        7        9       15 </v>
   <v type="int" >       12        7        9        9       15 </v>
   <v type="int" >       12        7        9       15       15 </v>
   <v type="int" >       12        7        7       13       15 </v>
   <v type="int" >       12        7       13       13       15 </v>
   <v type="int" >       12        7       13       15       15 </v>
   <v type="int" >       12        4        4        7       13 </v>
   <v type="int" >       12        4        7        7       13 </v>
   <v type="int" >       12        4        7       13       13 </v>
   <v type="int" >       24        4        4        4        7 </v>
   <v type="int" >       12        8        9       10       16 </v>
   <v type="int" >       12        8        9       15       16 </v>
   <v type="int" >       12        8       14       15       16 </v>
   <v type="int" >       12        6        7        9       15 </v>
   <v type="int" >       12        6        8        9       15 </v>
   <v type="int" >       12        6        8       14       15 </v>
   <v type="int" >       12        6        7       13       15 </v>
   <v type="int" >       12        6       12       13       15 </v>
   <v type="int" >       12        6       12       14       15 </v>
   <v type="int" >       12        3        4        7       13 </v>
   <v type="int" >       12        3        6        7       13 </v>
   <v type="int" >       12        3        6       12       13 </v>
   <v type="int" >       12        3        4        4        7 </v>
   <v type="int" >       12        3        3        4        7 </v>
   <v type="int" >       12        3        3        6        7 </v>
   <v type="int" >       12        3        4        7        7 </v>
   <v type="int" >       12        3        6        7        7 </v>
   <v type="int" >       12        5        6        8       14 </v>
   <v type="int" >       12        5        6       12       14 </v>
   <v type="int" >       12        5       11       12       14 </v>
   <v type="int" >       12        2        3        6       12 </v>
   <v type="int" >       12        2        5        6       12 </v>
   <v type="int" >       12        2        5       11       12 </v>
   <v type="int" >       12        2        3        3        6 </v>
   <v type="int" >       12        2        2        3        6 </v>
   <v type="int" >       12        2        2        5        6 </v>
   <v type="int" >       12        2        3        6        6 </v>
   <v type="int" >       12        2        5        6        6 </v>
   <v type="int" >       12        1        2        5       11 </v>
   <v type="int" >       12        1        1        2        5 </v>
   <v type="int" >       12        1        2        5        5 </v>
   <v type="int" >       12        1        1        1        2 </v>
   <v type="int" >       12       11       12       12       14 </v>
   <v type="int" >       12       12       12       14       14 </v>
   <v type="int" >       12       12       14       14       17 </v>
   <v type="int" >       12       12       13       14       15 </v>
   <v type="int" >       12       12       14       14       15 </v>
   <v type="int" >       12       14       14       15       17 </v>
   <v type="int" >       12       13       14       15       15 </v>
   <v type="int" >       24       14       15       15       18 </v>
   <v type="int" >       24       14       15       17       18 </v>
   <v type="int" >        6       13       13       15       15 </v>
   <v type="int" >       12       13       15       15       15 </v>
   <v type="int" >       12       15       15       15       18 </v>
   <v type="int" >        6       15       15       18       18 </v>
   <v type="int" >        6        5        5        6        6 </v>
   <v type="int" >       12        5        6        6        6 </v>
   <v type="int" >       12        6        6        6        8 </v>
   <v type="int" >        6        6        6        8        8 </v>
   <v type="int" >       12       14       15       16       17 </v>
   <v type="int" >       12       15       16       17       18 </v>
   <v type="int" >       12       16       17       18       19 </v>
   <v type="int" >       24       15       15       16       18 </v>
   <v type="int" >       12       15       16       16       18 </v>
   <v type="int" >       12       16       16       18       19 </v>
   <v type="int" >       12       15       16       18       18 </v>
   <v type="int" >       12       16       18       18       19 </v>
   <v type="int" >       12       16       18       19       19 </v>
   <v type="int" >       12       15       16       18       19 </v>
   <v type="int" >       12       15       17       18       18 </v>
   <v type="int" >       24       15       18       18       19 </v>
   <v type="int" >       12       12       13       14       17 </v>
   <v type="int" >       12       13       14       15       17 </v>
   <v type="int" >       12       13       15       17       18 </v>
   <v type="int" >       12        6        6        7        8 </v>
   <v type="int" >       12        6        7        7        8 </v>
   <v type="int" >       12        7        7        8        9 </v>
   <v type="int" >       12        6        7        8        8 </v>
   <v type="int" >       12        7        8        8        9 </v>
   <v type="int" >       12        7        8        9        9 </v>
   <v type="int" >       12       16       16       16       19 </v>
   <v type="int" >       12       16       16       19       19 </v>
   <v type="int" >       12       16       19       19       19 </v>
   <v type="int" >       12       15       15       16       19 </v>
   <v type="int" >       12       15       16       16       19 </v>
   <v type="int" >       12       15       16       19       19 </v>
   <v type="int" >       12       15       15       18       19 </v>
   <v type="int" >       12       15       18       19       19 </v>
   <v type="int" >       12       13       13       15       18 </v>
   <v type="int" >       12       13       15       15       18 </v>
   <v type="int" >       12       13       15       18       18 </v>
   <v type="int" >       24        7        7        7        9 </v>
   <v type="int" >       24        7        7        9        9 </v>
   <v type="int" >       24        7        9        9        9 </v>
   <v type="int" >       12       14       15       16       19 </v>
   <v type="int" >       12       14       15       18       19 </v>
   <v type="int" >       12       14       17       18       19 </v>
   <v type="int" >       12       12       13       15       18 </v>
   <v type="int" >       12       12       14       15       18 </v>
   <v type="int" >       12       12       14       17       18 </v>
   <v type="int" >       12        6        7        7        9 </v>
   <v type="int" >       12        6        6        7        9 </v>
   <v type="int" >       12        6        6        8        9 </v>
   <v type="int" >       12        6        7        9        9 </v>
   <v type="int" >       12        6        8        9        9 </v>
   <v type="int" >       12        6        8        8        9 </v>
   <v type="int" >       12       11       12       14       17 </v>
   <v type="int" >       12        5        6        6        8 </v>
   <v type="int" >       12        5        5        6        8 </v>
   <v type="int" >       12        5        6        8        8 </v>
   <v type="int" >       12        2        2        2        3 </v>
   <v type="int" >       12        2        2        3        3 </v>
   <v type="int" >       12        2        3        3        3 </v>
   <v type="int" >       12       17       18       18       19 </v>
   <v type="int" >       18       18       18       19       19 </v>
   <v type="int" >       24       18       19       19       20 </v>
   <v type="int" >       12       18       19       19       19 </v>
   <v type="int" >       24       19       19       19       20 </v>
   <v type="int" >       18       19       19       20       20 </v>
   <v type="int" >        6        8        8        9        9 </v>
   <v type="int" >       12        8        9        9        9 </v>
   <v type="int" >       36        9        9        9       10 </v>
   <v type="int" >       30        9        9       10       10 </v>
   <v type="int" >       12       19       20       20       20 </v>
   <v type="int" >       12       18       18       19       20 </v>
   <v type="int" >       12       18       19       20       20 </v>
   <v type="int" >       24        9       10       10       10 </v>
   <v type="int" >       12       17       18       19       20 </v>
   <v type="int" >       12        8        9        9       10 </v>
   <v type="int" >       12        8        8        9       10 </v>
   <v type="int" >       12        8        9       10       10 </v>
   <v type="int" >       12        3        3        3        4 </v>
   <v type="int" >       12        3        3        4        4 </v>
   <v type="int" >       12        3        4        4        4 </v>
   <v type="int" >        6       20       20       20       20 </v>
   <v type="int" >       18       10       10       10       10 </v>
   <v type="int" >       18        4        4        4        4 </v>
   <v type="int" >        6        1        1        1        1 </v>
  </varray>
  <i name="volumeweight">      0.00032552 </i>
 </kpoints>
 <parameters>
  <separator name="general" >
   <i type="string" name="SYSTEM">unknown system</i>
   <i type="logical" name="LCOMPAT"> F  </i>
  </separator>
  <separator name="electronic" >
   <i type="string" name="PREC">accura</i>
   <i name="ENMAX">    520.00000000</i>
   <i name="ENAUG">    586.98000000</i>
   <i name="EDIFF">      0.00020000</i>
   <i type="int" name="IALGO">    68</i>
   <i type="int" name="IWAVPR">    11</i>
   <i type="int" name="NBANDS">    26</i>
   <i name="NELECT">     44.00000000</i>
   <i type="int" name="TURBO">     0</i>
   <i type="int" name="IRESTART">     0</i>
   <i type="int" name="NREBOOT">     0</i>
   <i type="int" name="NMIN">     0</i>
   <i name="EREF">      0.00000000</i>
   <separator name="electronic smearing" >
    <i type="int" name="ISMEAR">    -5</i>
    <i name="SIGMA">      0.05000000</i>
    <i name="KSPACING">      0.50000000</i>
    <i type="logical" name="KGAMMA"> T  </i>
   </separator>
   <separator name="electronic projectors" >
    <i type="logical" name="LREAL"> T  </i>
    <v name="ROPT">     -0.00025000</v>
    <i type="int" name="LMAXPAW">  -100</i>
    <i type="int" name="LMAXMIX">     2</i>
    <i type="logical" name="NLSPLINE"> F  </i>
   </separator>
   <separator name="electronic startup" >
    <i type="int" name="ISTART">     0</i>
    <i type="int" name="ICHARG">     2</i>
    <i type="int" name="INIWAV">     1</i>
   </separator>
   <separator name="electronic spin" >
    <i type="int" name="ISPIN">     1</i>
    <i type="logical" name="LNONCOLLINEAR"> F  </i>
    <v name="MAGMOM">      1.00000000      1.00000000      1.00000000      1.00000000</v>
    <i name="NUPDOWN">     -1.00000000</i>
    <i type="logical" name="LSORBIT"> F  </i>
    <v name="SAXIS">      0.00000000      0.00000000      1.00000000</v>
    <i type="logical" name="LSPIRAL"> F  </i>
    <v name="QSPIRAL">      0.00000000      0.00000000      0.00000000</v>
    <i type="logical" name="LZEROZ"> F  </i>
   </separator>
   <separator name="electronic exchange-correlation" >
    <i type="logical" name="LASPH"> F  </i>
    <i type="logical" name="LMETAGGA"> F  </i>
   </separator>
   <separator name="electronic convergence" >
    <i type="int" name="NELM">   100</i>
    <i type="int" name="NELMDL">    -5</i>
    <i type="int" name="NELMIN">     2</i>
    <i name="ENINI">    520.00000000</i>
    <separator name="electronic convergence detail" >
     <i type="logical" name="LDIAG"> T  </i>
     <i type="logical" name="LSUBROT"> T  </i>
     <i name="WEIMIN">      0.00100000</i>
     <i name="EBREAK">      0.00000192</i>
     <i name="DEPER">      0.30000000</i>
     <i type="int" name="NRMM">     4</i>
     <i name="TIME">      0.40000000</i>
    </separator>
   </separator>
   <separator name="electronic mixer" >
    <i name="AMIX">      0.40000000</i>
    <i name="BMIX">      1.00000000</i>
    <i name="AMIN">      0.10000000</i>
    <i name="AMIX_MAG">      1.60000000</i>
    <i name="BMIX_MAG">      1.00000000</i>
    <separator name="electronic mixer details" >
     <i type="int" name="IMIX">     4</i>
     <i type="int" name="MAXMIX">   -45</i>
     <i name="WC">    100.00000000</i>
     <i type="int" name="INIMIX">     1</i>
     <i type="int" name="MIXPRE">     1</i>
     <i type="int" name="MREMOVE">     5</i>
    </separator>
   </separator>
   <separator name="electronic dipolcorrection" >
    <i type="logical" name="LDIPOL"> F  </i>
    <i type="logical" name="LMONO"> F  </i>
    <i type="int" name="IDIPOL">     0</i>
    <i name="EPSILON">      1.00000000</i>
    <v name="DIPOL">   -100.00000000   -100.00000000   -100.00000000</v>
    <i name="EFIELD">      0.00000000</i>
   </separator>
  </separator>
  <separator name="grids" >
   <i type="int" name="NGX">    28</i>
   <i type="int" name="NGY">    28</i>
   <i type="int" name="NGZ">    28</i>
   <i type="int" name="NGXF">    56</i>
   <i type="int" name="NGYF">    56</i>
   <i type="int" name="NGZF">    56</i>
   <i type="logical" name="ADDGRID"> F  </i>
  </separator>
  <separator name="ionic" >
   <i type="int" name="NSW">    99</i>
   <i type="int" name="IBRION">     2</i>
   <i type="int" name="ISIF">     3</i>
   <i name="PSTRESS">      0.00000000</i>
   <i name="EDIFFG">      0.00200000</i>
   <i type="int" name="NFREE">     1</i>
   <i name="POTIM">      0.50000000</i>
   <i name="SMASS">     -3.00000000</i>
   <i name="SCALEE">      1.00000000</i>
  </separator>
  <separator name="ionic md" >
   <i name="TEBEG">      0.00010000</i>
   <i name="TEEND">      0.00010000</i>
   <i type="int" name="NBLOCK">     1</i>
   <i type="int" name="KBLOCK">    99</i>
   <i type="int" name="NPACO">   256</i>
   <i name="APACO">     16.00000000</i>
  </separator>
  <separator name="symmetry" >
   <i type="int" name="ISYM">     2</i>
   <i name="SYMPREC">      0.00001000</i>
  </separator>
  <separator name="dos" >
   <i type="logical" name="LORBIT"> F  </i>
   <v name="RWIGS">     -1.00000000</v>
   <i type="int" name="NEDOS">   301</i>
   <i name="EMIN">     10.00000000</i>
   <i name="EMAX">    -10.00000000</i>
   <i name="EFERMI">      0.00000000</i>
  </separator>
  <separator name="writing" >
   <i type="int" name="NWRITE">     2</i>
   <i type="logical" name="LWAVE"> F  </i>
   <i type="logical" name="LCHARG"> T  </i>
   <i type="logical" name="LPARD"> F  </i>
   <i type="logical" name="LVTOT"> F  </i>
   <i type="logical" name="LVHAR"> F  </i>
   <i type="logical" name="LELF"> F  </i>
   <i type="logical" name="LOPTICS"> F  </i>
   <v name="STM">      0.00000000      0.00000000      0.00000000      0.00000000      0.00000000      0.00000000      0.00000000</v>
  </separator>
  <separator name="performance" >
   <i type="int" name="NPAR">     1</i>
   <i type="int" name="NSIM">     4</i>
   <i type="int" name="NBLK">    -1</i>
   <i type="logical" name="LPLANE"> T  </i>
   <i type="logical" name="LSCALAPACK"> F  </i>
   <i type="logical" name="LSCAAWARE"> F  </i>
   <i type="logical" name="LSCALU"> F  </i>
   <i type="logical" name="LASYNC"> F  </i>
   <i type="logical" name="LORBITALREAL"> F  </i>
  </separator>
  <separator name="miscellaneous" >
   <i type="int" name="IDIOT">     3</i>
   <i type="logical" name="LMUSIC"> F  </i>
   <v name="POMASS">     63.54600000</v>
   <v name="DARWINR">      0.00000000</v>
   <v name="DARWINV">      1.00000000</v>
   <i type="logical" name="LCORR"> T  </i>
  </separator>
  <i type="logical" name="GGA_COMPAT"> T  </i>
  <i type="logical" name="LBERRY"> F  </i>
  <i type="int" name="ICORELEVEL">     0</i>
  <i type="logical" name="LDAU"> F  </i>
  <i type="int" name="I_CONSTRAINED_M">     0</i>
  <separator name="electronic exchange-correlation" >
   <i type="string" name="GGA">--</i>
   <i type="int" name="VOSKOWN">     0</i>
   <i type="logical" name="LHFCALC"> F  </i>
   <i type="string" name="PRECFOCK"></i>
   <i type="logical" name="LSYMGRAD"> F  </i>
   <i type="logical" name="LHFONE"> F  </i>
   <i type="logical" name="LRHFCALC"> F  </i>
   <i type="logical" name="LTHOMAS"> F  </i>
   <i type="logical" name="LMODELHF"> F  </i>
   <i name="ENCUT4O">     -1.00000000</i>
   <i type="int" name="EXXOEP">     0</i>
   <i type="int" name="FOURORBIT">     0</i>
   <i name="AEXX">      0.00000000</i>
   <i name="HFALPHA">      0.00000000</i>
   <i name="MCALPHA">      0.00000000</i>
   <i name="ALDAX">      1.00000000</i>
   <i name="AGGAX">      1.00000000</i>
   <i name="ALDAC">      1.00000000</i>
   <i name="AGGAC">      1.00000000</i>
   <i type="int" name="NKREDX">     1</i>
   <i type="int" name="NKREDY">     1</i>
   <i type="int" name="NKREDZ">     1</i>
   <i type="logical" name="SHIFTRED"> F  </i>
   <i type="logical" name="ODDONLY"> F  </i>
   <i type="logical" name="EVENONLY"> F  </i>
   <i type="int" name="LMAXFOCK">     0</i>
   <i type="int" name="NMAXFOCKAE">     0</i>
   <i type="logical" name="LFOCKAEDFT"> F  </i>
   <i name="HFSCREEN">      0.00000000</i>
   <i name="HFSCREENC">      0.00000000</i>
   <i type="int" name="NBANDSGWLOW">     0</i>
  </separator>
  <separator name="vdW DFT" >
   <i type="logical" name="LUSE_VDW"> F  </i>
   <i name="Zab_VDW">     -0.84910000</i>
   <i name="PARAM1">      0.12340000</i>
   <i name="PARAM2">      1.00000000</i>
   <i name="PARAM3">      0.00000000</i>
  </separator>
  <separator name="model GW" >
   <i type="int" name="MODEL_GW">     0</i>
   <i name="MODEL_EPS0">      7.09452237</i>
   <i name="MODEL_ALPHA">      1.00000000</i>
  </separator>
  <separator name="linear response parameters" >
   <i type="logical" name="LEPSILON"> F  </i>
   <i type="logical" name="LRPA"> F  </i>
   <i type="logical" name="LNABLA"> F  </i>
   <i type="logical" name="LVEL"> F  </i>
   <i type="int" name="KINTER">     0</i>
   <i name="CSHIFT">      0.10000000</i>
   <i name="OMEGAMAX">     -1.00000000</i>
   <i name="DEG_THRESHOLD">      0.00200000</i>
  </separator>
  <separator name="orbital magnetization" >
   <i type="logical" name="NUCIND"> F  </i>
   <v name="MAGPOS">      0.00000000      0.00000000      0.00000000</v>
   <i type="logical" name="LNICSALL"> T  </i>
   <i type="logical" name="ORBITALMAG"> F  </i>
   <i type="logical" name="LMAGBLOCH"> F  </i>
   <i type="logical" name="LCHIMAG"> F  </i>
   <i type="logical" name="LGAUGE"> T  </i>
   <i type="int" name="MAGATOM">     0</i>
   <v name="MAGDIPOL">      0.00000000      0.00000000      0.00000000</v>
   <v name="AVECCONST">      0.00000000      0.00000000      0.00000000</v>
  </separator>
  <separator name="response functions" >
   <i type="logical" name="LADDER"> F  </i>
   <i type="logical" name="LFXC"> F  </i>
   <i type="logical" name="LHARTREE"> T  </i>
   <i type="int" name="IBSE">     0</i>
   <i type="logical" name="LTCTE"> F  </i>
   <i type="logical" name="LTETE"> F  </i>
   <i type="logical" name="LTRIPLET"> F  </i>
   <i type="logical" name="LFXCEPS"> F  </i>
   <i type="logical" name="L2ORDER"> F  </i>
   <i type="logical" name="LUSEW"> F  </i>
   <i name="ENCUTGW">     -2.00000000</i>
   <i name="ENCUTGWSOFT">     -2.00000000</i>
   <i name="ENCUTLF">     -1.00000000</i>
   <i type="int" name="LMAXMP2">    -1</i>
   <i name="SCISSOR">      0.00000000</i>
   <i type="int" name="NOMEGA">     0</i>
   <i type="int" name="NOMEGAR">     0</i>
   <i type="int" name="NBANDSGW">    -1</i>
   <i type="int" name="NBANDSO">    -1</i>
   <i type="int" name="NBANDSV">    -1</i>
   <i type="int" name="NELM">   100</i>
   <i type="int" name="DIM">     3</i>
   <i type="int" name="ANTIRES">     0</i>
   <i name="OMEGAMAX">    -30.00000000</i>
   <i name="OMEGATL">   -200.00000000</i>
   <i type="int" name="OMEGAGRID">     0</i>
   <i name="CSHIFT">     -0.10000000</i>
   <i type="logical" name="SELFENERGY"> F  </i>
   <i type="logical" name="LSPECTRAL"> F  </i>
   <i type="logical" name="ODDONLYGW"> F  </i>
   <i type="logical" name="EVENONLYGW"> F  </i>
   <i type="int" name="NKREDLFX">     1</i>
   <i type="int" name="NKREDLFY">     1</i>
   <i type="int" name="NKREDLFZ">     1</i>
   <i type="int" name="MAXMEM">  1800</i>
   <i type="int" name="TELESCOPE">     0</i>
  </separator>
 </parameters>
 <atominfo>
  <atoms>       4 </atoms>
  <types>       1 </types>
  <array name="atoms" >
   <dimension dim="1">ion</dimension>
   <field type="string">element</field>
   <field type="int">atomtype</field>
   <set>
    <rc><c>Cu</c><c>   1</c></rc>
    <rc><c>Cu</c><c>   1</c></rc>
    <rc><c>Cu</c><c>   1</c></rc>
    <rc><c>Cu</c><c>   1</c></rc>
   </set>
  </array>
  <array name="atomtypes" >
   <dimension dim="1">type</dimension>
   <field type="int">atomspertype</field>
   <field type="string">element</field>
   <field>mass</field>
   <field>valence</field>
   <field type="string">pseudopotential</field>
   <set>
    <rc><c>   4</c><c>Cu</c><c>     63.54600000</c><c>     11.00000000</c><c>  PAW_PBE Cu 22Jun2005                  </c></rc>
   </set>
  </array>
 </atominfo>
 <structure name="initialpos" >
  <crystal>
   <varray name="basis" >
    <v>       3.61640700       0.00000000       0.00000000 </v>
    <v>       0.00000000       3.61640700       0.00000000 </v>
    <v>       0.00000000       0.00000000       3.61640700 </v>
   </varray>
   <i name="volume">     47.29681582 </i>
   <varray name="rec_basis" >
    <v>       0.27651755       0.00000000       0.00000000 </v>
    <v>       0.00000000       0.27651755       0.00000000 </v>
    <v>       0.00000000       0.00000000       0.27651755 </v>
   </varray>
  </crystal>
  <varray name="positions" >
   <v>       0.00000000       0.00000000       0.00000000 </v>
   <v>       0.00000000       0.50000000       0.50000000 </v>
   <v>       0.50000000       0.00000000       0.50000000 </v>
   <v>       0.50000000       0.50000000       0.00000000 </v>
  </varray>
 </structure>
 <calculation>
  <scstep>
   <time name="dav">    4.06    4.06</time>
   <time name="total">    4.20    4.20</time>
   <energy>
    <i name="alphaZ">    247.40034584 </i>
    <i name="ewald">  -4417.94614910 </i>
    <i name="hartreedc">  -1448.52646164 </i>
    <i name="XCdc">    183.12754211 </i>
    <i name="pawpsdc">   4912.82663951 </i>
    <i name="pawaedc">  -5336.19386850 </i>
    <i name="eentropy">      0.00000000 </i>
    <i name="bandstr">    627.90125026 </i>
    <i name="atom">   5563.90821598 </i>
    <i name="e_fr_energy">    332.49751445 </i>
    <i name="e_wo_entrp">    332.49751445 </i>
    <i name="e_0_energy">    332.49751445 </i>
   </energy>
  </scstep>
  <scstep>
   <time name="dav">    4.04    4.05</time>
   <time name="total">    4.06    4.06</time>
   <energy>
    <i name="e_fr_energy">      7.88714880 </i>
    <i name="e_wo_entrp">      7.88714880 </i>
    <i name="e_0_energy">      7.88714880 </i>
   </energy>
  </scstep>
  <scstep>
   <time name="dav">    4.20    4.21</time>
   <time name="total">    4.22    4.22</time>
   <energy>
    <i name="e_fr_energy">    -17.92710635 </i>
    <i name="e_wo_entrp">    -17.92710635 </i>
    <i name="e_0_energy">    -17.92710635 </i>
   </energy>
  </scstep>
  <scstep>
   <time name="dav">    4.52    4.53</time>
   <time name="total">    4.54    4.54</time>
   <energy>
    <i name="e_fr_energy">    -18.50991613 </i>
    <i name="e_wo_entrp">    -18.50991613 </i>
    <i name="e_0_energy">    -18.50991613 </i>
   </energy>
  </scstep>
  <scstep>
   <time name="dav">    5.02    5.02</time>
   <time name="total">    5.40    5.40</time>
   <energy>
    <i name="e_fr_energy">    -18.51721709 </i>
    <i name="e_wo_entrp">    -18.51721709 </i>
    <i name="e_0_energy">    -18.51721709 </i>
   </energy>
  </scstep>
  <scstep>
   <time name="diag">    0.78    0.79</time>
   <time name="diis">    2.77    2.77</time>
   <time name="orth">    0.01    0.01</time>
   <time name="total">    4.08    4.09</time>
   <energy>
    <i name="e_fr_energy">    -16.28478248 </i>
    <i name="e_wo_entrp">    -16.28478248 </i>
    <i name="e_0_energy">    -16.28478248 </i>
   </energy>
  </scstep>
  <scstep>
   <time name="diag">    0.78    0.78</time>
   <time name="diis">    2.78    2.78</time>
   <time name="orth">    0.01    0.01</time>
   <time name="total">    4.08    4.09</time>
   <energy>
    <i name="e_fr_energy">    -14.94993230 </i>
    <i name="e_wo_entrp">    -14.94993230 </i>
    <i name="e_0_energy">    -14.94993230 </i>
   </energy>
  </scstep>
  <scstep>
   <time name="diag">    0.78    0.78</time>
   <time name="diis">    2.89    2.90</time>
   <time name="orth">    0.01    0.01</time>
   <time name="total">    4.20    4.21</time>
   <energy>
    <i name="e_fr_energy">    -14.91203557 </i>
    <i name="e_wo_entrp">    -14.91203557 </i>
    <i name="e_0_energy">    -14.91203557 </i>
   </energy>
  </scstep>
  <scstep>
   <time name="diag">    0.78    0.78</time>
   <time name="diis">    2.85    2.85</time>
   <time name="orth">    0.01    0.01</time>
   <time name="total">    4.16    4.16</time>
   <energy>
    <i name="e_fr_energy">    -14.90837257 </i>
    <i name="e_wo_entrp">    -14.90837257 </i>
    <i name="e_0_energy">    -14.90837257 </i>
   </energy>
  </scstep>
  <scstep>
   <time name="diag">    0.78    0.78</time>
   <time name="diis">    2.13    2.13</time>
   <time name="orth">    0.01    0.01</time>
   <time name="total">    3.07    3.08</time>
   <energy>
    <i name="alphaZ">    247.40034584 </i>
    <i name="ewald">  -4417.94614910 </i>
    <i name="hartreedc">  -1354.73567654 </i>
    <i name="XCdc">    178.67257212 </i>
    <i name="pawpsdc">   5267.44879140 </i>
    <i name="pawaedc">  -5699.08420158 </i>
    <i name="eentropy">      0.00000000 </i>
    <i name="bandstr">    199.42755999 </i>
    <i name="atom">   5563.90821598 </i>
    <i name="e_fr_energy">    -14.90854190 </i>
    <i name="e_wo_entrp">    -14.90854190 </i>
    <i name="e_0_energy">    -14.90854190 </i>
   </energy>
  </scstep>
  <structure>
   <crystal>
    <varray name="basis" >
     <v>       3.61640700       0.00000000       0.00000000 </v>
     <v>       0.00000000       3.61640700       0.00000000 </v>
     <v>       0.00000000       0.00000000       3.61640700 </v>
    </varray>
    <i name="volume">     47.29681582 </i>
    <varray name="rec_basis" >
     <v>       0.27651755       0.00000000       0.00000000 </v>
     <v>       0.00000000       0.27651755       0.00000000 </v>
     <v>       0.00000000       0.00000000       0.27651755 </v>
    </varray>
   </crystal>
   <varray name="positions" >
    <v>       0.00000000       0.00000000       0.00000000 </v>
    <v>       0.00000000       0.50000000       0.50000000 </v>
    <v>       0.50000000       0.00000000       0.50000000 </v>
    <v>       0.50000000       0.50000000       0.00000000 </v>
   </varray>
  </structure>
  <varray name="forces" >
   <v>      -0.00000000      -0.00000000      -0.00000000 </v>
   <v>      -0.00000000       0.00000000       0.00000000 </v>
   <v>       0.00000000      -0.00000000       0.00000000 </v>
   <v>       0.00000000      -0.00000000      -0.00000000 </v>
  </varray>
  <varray name="stress" >
   <v>      43.07903701      -0.00000000       0.00000000 </v>
   <v>      -0.00000000      43.07903701      -0.00000000 </v>
   <v>      -0.00000000       0.00000000      43.07903701 </v>
  </varray>
  <energy>
   <i name="e_fr_energy">    -14.90854190 </i>
   <i name="e_wo_entrp">    -14.90854190 </i>
   <i name="e_0_energy">      0.00000000 </i>
  </energy>
  <time name="totalsc">   50.36   50.43</time>
 </calculation>
 <calculation>
  <scstep>
   <time name="dav">    4.13    4.13</time>
   <time name="total">    4.64    4.64</time>
   <energy>
    <i name="alphaZ">    236.35720442 </i>
    <i name="ewald">  -4351.20887848 </i>
    <i name="hartreedc">  -1334.70616227 </i>
    <i name="XCdc">    175.25991460 </i>
    <i name="pawpsdc">   5266.22370506 </i>
    <i name="pawaedc">  -5697.72020413 </i>
    <i name="eentropy">      0.00000000 </i>
    <i name="bandstr">    125.09687515 </i>
    <i name="atom">   5563.90821598 </i>
    <i name="e_fr_energy">    -16.78932968 </i>
    <i name="e_wo_entrp">    -16.78932968 </i>
    <i name="e_0_energy">    -16.78932968 </i>
   </energy>
  </scstep>
  <scstep>
   <time name="diag">    0.77    0.77</time>
   <time name="diis">    2.74    2.74</time>
   <time name="orth">    0.01    0.01</time>
   <time name="total">    4.03    4.04</time>
   <energy>
    <i name="e_fr_energy">    -15.32803694 </i>
    <i name="e_wo_entrp">    -15.32803694 </i>
    <i name="e_0_energy">    -15.32803694 </i>
   </energy>
  </scstep>
  <scstep>
   <time name="diag">    0.79    0.79</time>
   <time name="diis">    2.76    2.77</time>
   <time name="orth">    0.01    0.01</time>
   <time name="total">    4.07    4.07</time>
   <energy>
    <i name="e_fr_energy">    -14.94756501 </i>
    <i name="e_wo_entrp">    -14.94756501 </i>
    <i name="e_0_energy">    -14.94756501 </i>
   </energy>
  </scstep>
  <scstep>
   <time name="diag">    0.77    0.77</time>
   <time name="diis">    2.81    2.82</time>
   <time name="orth">    0.01    0.01</time>
   <time name="total">    4.11    4.11</time>
   <energy>
    <i name="e_fr_energy">    -14.89512590 </i>
    <i name="e_wo_entrp">    -14.89512590 </i>
    <i name="e_0_energy">    -14.89512590 </i>
   </energy>
  </scstep>
  <scstep>
   <time name="diag">    0.79    0.79</time>
   <time name="diis">    2.75    2.75</time>
   <time name="orth">    0.01    0.01</time>
   <time name="total">    4.06    4.06</time>
   <energy>
    <i name="e_fr_energy">    -14.89333699 </i>
    <i name="e_wo_entrp">    -14.89333699 </i>
    <i name="e_0_energy">    -14.89333699 </i>
   </energy>
  </scstep>
  <scstep>
   <time name="diag">    0.78    0.78</time>
   <time name="diis">    2.19    2.19</time>
   <time name="orth">    0.01    0.01</time>
   <time name="total">    3.12    3.13</time>
   <energy>
    <i name="alphaZ">    236.35720442 </i>
    <i name="ewald">  -4351.20887848 </i>
    <i name="hartreedc">  -1393.01350721 </i>
    <i name="XCdc">    178.31822462 </i>
    <i name="pawpsdc">   5204.05507396 </i>
    <i name="pawaedc">  -5634.44091459 </i>
    <i name="eentropy">      0.00000000 </i>
    <i name="bandstr">    181.13132759 </i>
    <i name="atom">   5563.90821598 </i>
    <i name="e_fr_energy">    -14.89325371 </i>
    <i name="e_wo_entrp">    -14.89325371 </i>
    <i name="e_0_energy">    -14.89325371 </i>
   </energy>
  </scstep>
  <structure>
   <crystal>
    <varray name="basis" >
     <v>       3.67187414      -0.00000000       0.00000000 </v>
     <v>      -0.00000000       3.67187414      -0.00000000 </v>
     <v>      -0.00000000       0.00000000       3.67187414 </v>
    </varray>
    <i name="volume">     49.50662968 </i>
    <varray name="rec_basis" >
     <v>       0.27234049       0.00000000       0.00000000 </v>
     <v>       0.00000000       0.27234049      -0.00000000 </v>
     <v>      -0.00000000       0.00000000       0.27234049 </v>
    </varray>
   </crystal>
   <varray name="positions" >
    <v>      -0.00000000      -0.00000000      -0.00000000 </v>
    <v>      -0.00000000       0.50000000       0.50000000 </v>
    <v>       0.50000000      -0.00000000       0.50000000 </v>
    <v>       0.50000000       0.50000000      -0.00000000 </v>
   </varray>
  </structure>
  <varray name="forces" >
   <v>       0.00000000      -0.00000000       0.00000000 </v>
   <v>       0.00000000       0.00000000      -0.00000000 </v>
   <v>      -0.00000000      -0.00000000      -0.00000000 </v>
   <v>      -0.00000000       0.00000000       0.00000000 </v>
  </varray>
  <varray name="stress" >
   <v>     -15.69112649      -0.00000000       0.00000000 </v>
   <v>      -0.00000000     -15.69112649       0.00000000 </v>
   <v>       0.00000000       0.00000000     -15.69112649 </v>
  </varray>
  <energy>
   <i name="e_fr_energy">    -14.89325371 </i>
   <i name="e_wo_entrp">    -14.89325371 </i>
   <i name="e_0_energy">      0.00000000 </i>
  </energy>
  <time name="totalsc">   32.19   32.22</time>
 </calculation>
 <calculation>
  <scstep>
   <time name="dav">    4.07    4.07</time>
   <time name="total">    4.57    4.58</time>
   <energy>
    <i name="alphaZ">    239.33856490 </i>
    <i name="ewald">  -4369.42757000 </i>
    <i name="hartreedc">  -1398.95731529 </i>
    <i name="XCdc">    179.27599045 </i>
    <i name="pawpsdc">   5204.38238500 </i>
    <i name="pawaedc">  -5634.83078150 </i>
    <i name="eentropy">      0.00000000 </i>
    <i name="bandstr">    201.25026894 </i>
    <i name="atom">   5563.90821598 </i>
    <i name="e_fr_energy">    -15.06024152 </i>
    <i name="e_wo_entrp">    -15.06024152 </i>
    <i name="e_0_energy">    -15.06024152 </i>
   </energy>
  </scstep>
  <scstep>
   <time name="diag">    0.79    0.79</time>
   <time name="diis">    2.74    2.74</time>
   <time name="orth">    0.01    0.01</time>
   <time name="total">    4.05    4.06</time>
   <energy>
    <i name="e_fr_energy">    -14.95699309 </i>
    <i name="e_wo_entrp">    -14.95699309 </i>
    <i name="e_0_energy">    -14.95699309 </i>
   </energy>
  </scstep>
  <scstep>
   <time name="diag">    0.78    0.79</time>
   <time name="diis">    2.75    2.76</time>
   <time name="orth">    0.01    0.01</time>
   <time name="total">    4.06    4.07</time>
   <energy>
    <i name="e_fr_energy">    -14.90960914 </i>
    <i name="e_wo_entrp">    -14.90960914 </i>
    <i name="e_0_energy">    -14.90960914 </i>
   </energy>
  </scstep>
  <scstep>
   <time name="diag">    0.78    0.78</time>
   <time name="diis">    2.54    2.54</time>
   <time name="orth">    0.01    0.01</time>
   <time name="total">    3.85    3.85</time>
   <energy>
    <i name="e_fr_energy">    -14.90594184 </i>
    <i name="e_wo_entrp">    -14.90594184 </i>
    <i name="e_0_energy">    -14.90594184 </i>
   </energy>
  </scstep>
  <scstep>
   <time name="diag">    0.79    0.79</time>
   <time name="diis">    1.73    1.74</time>
   <time name="orth">    0.01    0.01</time>
   <time name="total">    2.68    2.68</time>
   <energy>
    <i name="alphaZ">    239.33856490 </i>
    <i name="ewald">  -4369.42757000 </i>
    <i name="hartreedc">  -1382.37673306 </i>
    <i name="XCdc">    178.40760371 </i>
    <i name="pawpsdc">   5221.64849351 </i>
    <i name="pawaedc">  -5652.52604707 </i>
    <i name="eentropy">      0.00000000 </i>
    <i name="bandstr">    186.12158068 </i>
    <i name="atom">   5563.90821598 </i>
    <i name="e_fr_energy">    -14.90589135 </i>
    <i name="e_wo_entrp">    -14.90589135 </i>
    <i name="e_0_energy">    -14.90589135 </i>
   </energy>
  </scstep>
  <structure>
   <crystal>
    <varray name="basis" >
     <v>       3.65656396      -0.00000000       0.00000000 </v>
     <v>      -0.00000000       3.65656396      -0.00000000 </v>
     <v>      -0.00000000       0.00000000       3.65656396 </v>
    </varray>
    <i name="volume">     48.88994215 </i>
    <varray name="rec_basis" >
     <v>       0.27348079       0.00000000       0.00000000 </v>
     <v>       0.00000000       0.27348079      -0.00000000 </v>
     <v>      -0.00000000       0.00000000       0.27348079 </v>
    </varray>
   </crystal>
   <varray name="positions" >
    <v>      -0.00000000      -0.00000000      -0.00000000 </v>
    <v>      -0.00000000       0.50000000       0.50000000 </v>
    <v>       0.50000000      -0.00000000       0.50000000 </v>
    <v>       0.50000000       0.50000000      -0.00000000 </v>
   </varray>
  </structure>
  <varray name="forces" >
   <v>      -0.00000000       0.00000000       0.00000000 </v>
   <v>       0.00000000       0.00000000      -0.00000000 </v>
   <v>      -0.00000000      -0.00000000      -0.00000000 </v>
   <v>      -0.00000000      -0.00000000      -0.00000000 </v>
  </varray>
  <varray name="stress" >
   <v>     -22.84885264      -0.00000000       0.00000000 </v>
   <v>       0.00000000     -22.84885264      -0.00000000 </v>
   <v>       0.00000000       0.00000000     -22.84885264 </v>
  </varray>
  <energy>
   <i name="e_fr_energy">    -14.90589135 </i>
   <i name="e_wo_entrp">    -14.90589135 </i>
   <i name="e_0_energy">      0.00000000 </i>
  </energy>
  <time name="totalsc">   27.38   27.41</time>
 </calculation>
 <calculation>
  <scstep>
   <time name="dav">    4.06    4.06</time>
   <time name="total">    4.57    4.57</time>
   <energy>
    <i name="alphaZ">    242.15273653 </i>
    <i name="ewald">  -4386.48630246 </i>
    <i name="hartreedc">  -1388.05370736 </i>
    <i name="XCdc">    179.30857667 </i>
    <i name="pawpsdc">   5221.89326706 </i>
    <i name="pawaedc">  -5652.64503699 </i>
    <i name="eentropy">      0.00000000 </i>
    <i name="bandstr">    204.87723927 </i>
    <i name="atom">   5563.90821598 </i>
    <i name="e_fr_energy">    -15.04501130 </i>
    <i name="e_wo_entrp">    -15.04501130 </i>
    <i name="e_0_energy">    -15.04501130 </i>
   </energy>
  </scstep>
  <scstep>
   <time name="diag">    0.79    0.79</time>
   <time name="diis">    2.77    2.77</time>
   <time name="orth">    0.01    0.01</time>
   <time name="total">    4.08    4.09</time>
   <energy>
    <i name="e_fr_energy">    -14.95454701 </i>
    <i name="e_wo_entrp">    -14.95454701 </i>
    <i name="e_0_energy">    -14.95454701 </i>
   </energy>
  </scstep>
  <scstep>
   <time name="diag">    0.77    0.78</time>
   <time name="diis">    2.76    2.76</time>
   <time name="orth">    0.01    0.01</time>
   <time name="total">    4.06    4.06</time>
   <energy>
    <i name="e_fr_energy">    -14.91524417 </i>
    <i name="e_wo_entrp">    -14.91524417 </i>
    <i name="e_0_energy">    -14.91524417 </i>
   </energy>
  </scstep>
  <scstep>
   <time name="diag">    0.79    0.79</time>
   <time name="diis">    2.53    2.53</time>
   <time name="orth">    0.01    0.01</time>
   <time name="total">    3.84    3.85</time>
   <energy>
    <i name="e_fr_energy">    -14.91208073 </i>
    <i name="e_wo_entrp">    -14.91208073 </i>
    <i name="e_0_energy">    -14.91208073 </i>
   </energy>
  </scstep>
  <scstep>
   <time name="diag">    0.78    0.78</time>
   <time name="diis">    1.72    1.72</time>
   <time name="orth">    0.01    0.01</time>
   <time name="total">    2.65    2.65</time>
   <energy>
    <i name="alphaZ">    242.15273653 </i>
    <i name="ewald">  -4386.48630246 </i>
    <i name="hartreedc">  -1372.67615408 </i>
    <i name="XCdc">    178.50223159 </i>
    <i name="pawpsdc">   5237.15909487 </i>
    <i name="pawaedc">  -5668.30254207 </i>
    <i name="eentropy">      0.00000000 </i>
    <i name="bandstr">    190.83068261 </i>
    <i name="atom">   5563.90821598 </i>
    <i name="e_fr_energy">    -14.91203703 </i>
    <i name="e_wo_entrp">    -14.91203703 </i>
    <i name="e_0_energy">    -14.91203703 </i>
   </energy>
  </scstep>
  <structure>
   <crystal>
    <varray name="basis" >
     <v>       3.64234384      -0.00000000       0.00000000 </v>
     <v>      -0.00000000       3.64234384      -0.00000000 </v>
     <v>      -0.00000000       0.00000000       3.64234384 </v>
    </varray>
    <i name="volume">     48.32176898 </i>
    <varray name="rec_basis" >
     <v>       0.27454849       0.00000000       0.00000000 </v>
     <v>       0.00000000       0.27454849      -0.00000000 </v>
     <v>      -0.00000000       0.00000000       0.27454849 </v>
    </varray>
   </crystal>
   <varray name="positions" >
    <v>      -0.00000000      -0.00000000      -0.00000000 </v>
    <v>      -0.00000000       0.50000000       0.50000000 </v>
    <v>       0.50000000      -0.00000000       0.50000000 </v>
    <v>       0.50000000       0.50000000      -0.00000000 </v>
   </varray>
  </structure>
  <varray name="forces" >
   <v>      -0.00000000      -0.00000000       0.00000000 </v>
   <v>       0.00000000       0.00000000      -0.00000000 </v>
   <v>      -0.00000000      -0.00000000      -0.00000000 </v>
   <v>       0.00000000      -0.00000000      -0.00000000 </v>
  </varray>
  <varray name="stress" >
   <v>      -8.96659207       0.00000000       0.00000000 </v>
   <v>       0.00000000      -8.96659207      -0.00000000 </v>
   <v>       0.00000000      -0.00000000      -8.96659207 </v>
  </varray>
  <energy>
   <i name="e_fr_energy">    -14.91203703 </i>
   <i name="e_wo_entrp">    -14.91203703 </i>
   <i name="e_0_energy">      0.00000000 </i>
  </energy>
  <time name="totalsc">   26.76   26.80</time>
  <eigenvalues>
   <array>
    <dimension dim="1">band</dimension>
    <dimension dim="2">kpoint</dimension>
    <dimension dim="3">spin</dimension>
    <field>eigene</field>
    <field>occ</field>
    <set>
     <set comment="spin 1">
      <set comment="kpoint 1">
       <r>   -1.7321    1.0000 </r>
       <r>    2.6033    1.0000 </r>
       <r>    2.6033    1.0000 </r>
       <r>    2.6033    1.0000 </r>
       <r>    3.0384    1.0000 </r>
       <r>    3.0384    1.0000 </r>
       <r>    3.0384    1.0000 </r>
       <r>    4.3163    1.0000 </r>
       <r>    4.3712    1.0000 </r>
       <r>    4.3712    1.0000 </r>
       <r>    5.1335    1.0000 </r>
       <r>    5.1335    1.0000 </r>
       <r>    5.6326    1.0000 </r>
       <r>    5.6326    1.0000 </r>
       <r>    5.6326    1.0000 </r>
       <r>    5.6543    1.0000 </r>
       <r>    5.6543    1.0000 </r>
       <r>    5.6543    1.0000 </r>
       <r>    5.8004    1.0000 </r>
       <r>    5.8004    1.0000 </r>
       <r>    5.8004    1.0000 </r>
       <r>    8.7564   -0.1396 </r>
       <r>    8.7564    0.0000 </r>
       <r>    8.7564    0.0000 </r>
       <r>   14.7071    0.0000 </r>
       <r>   14.7071    0.0000 </r>
      </set>
      <set comment="kpoint 2">
       <r>   -1.3629    1.0000 </r>
       <r>    2.5726    1.0000 </r>
       <r>    2.7664    1.0000 </r>
       <r>    2.7664    1.0000 </r>
       <r>    3.1318    1.0000 </r>
       <r>    3.1392    1.0000 </r>
       <r>    3.1392    1.0000 </r>
       <r>    4.2209    1.0000 </r>
       <r>    4.4468    1.0000 </r>
       <r>    4.4497    1.0000 </r>
       <r>    5.0445    1.0000 </r>
       <r>    5.1782    1.0000 </r>
       <r>    5.1806    1.0000 </r>
       <r>    5.1806    1.0000 </r>
       <r>    5.4585    1.0000 </r>
       <r>    5.5209    1.0000 </r>
       <r>    5.5209    1.0000 </r>
       <r>    5.5377    1.0000 </r>
       <r>    5.7174    1.0000 </r>
       <r>    5.7916    1.0000 </r>
       <r>    5.7916    1.0000 </r>
       <r>    7.2003    0.5877 </r>
       <r>    9.5333    0.0000 </r>
       <r>    9.5333    0.0000 </r>
       <r>   14.8847    0.0000 </r>
       <r>   14.8846    0.0000 </r>
      </set>
      <set comment="kpoint 3">
       <r>   -0.6452    1.0000 </r>
       <r>    2.3059    1.0000 </r>
       <r>    3.0352    1.0000 </r>
       <r>    3.0352    1.0000 </r>
       <r>    3.3064    1.0000 </r>
       <r>    3.3419    1.0000 </r>
       <r>    3.3419    1.0000 </r>
       <r>    4.0346    1.0000 </r>
       <r>    4.5888    1.0000 </r>
       <r>    4.5960    1.0000 </r>
       <r>    4.5960    1.0000 </r>
       <r>    4.6026    1.0000 </r>
       <r>    4.9121    1.0000 </r>
       <r>    5.0298    1.0000 </r>
       <r>    5.2609    1.0000 </r>
       <r>    5.3194    1.0000 </r>
       <r>    5.3194    1.0000 </r>
       <r>    5.3362    1.0000 </r>
       <r>    5.6078    1.0000 </r>
       <r>    5.7883    1.0000 </r>
       <r>    5.7883    1.0000 </r>
       <r>    5.8792    1.0462 </r>
       <r>   10.7113    0.0000 </r>
       <r>   10.7113    0.0000 </r>
       <r>   15.2020    0.0000 </r>
       <r>   15.2017    0.0000 </r>
      </set>
      <set comment="kpoint 4">
       <r>    0.3616    1.0000 </r>
       <r>    1.4863    1.0000 </r>
       <r>    3.2733    1.0000 </r>
       <r>    3.2733    1.0000 </r>
       <r>    3.5383    1.0000 </r>
       <r>    3.6441    1.0000 </r>
       <r>    3.6441    1.0000 </r>
       <r>    3.7940    1.0000 </r>
       <r>    4.0720    1.0000 </r>
       <r>    4.0720    1.0000 </r>
       <r>    4.6260    1.0000 </r>
       <r>    4.6447    1.0000 </r>
       <r>    4.8190    1.0000 </r>
       <r>    4.9658    1.0000 </r>
       <r>    5.0766    1.0000 </r>
       <r>    5.1336    1.0000 </r>
       <r>    5.1336    1.0000 </r>
       <r>    5.2862    1.0000 </r>
       <r>    5.3697    1.0000 </r>
       <r>    5.4899    1.0000 </r>
       <r>    5.7873    1.0000 </r>
       <r>    5.7873    1.0000 </r>
       <r>   12.1014    0.0000 </r>
       <r>   12.1014    0.0000 </r>
       <r>   13.6913    0.0000 </r>
       <r>   13.6913    0.0000 </r>
      </set>
      <set comment="kpoint 5">
       <r>   -1.0014    1.0000 </r>
       <r>    2.7534    1.0000 </r>
       <r>    2.7534    1.0000 </r>
       <r>    2.9103    1.0000 </r>
       <r>    3.2235    1.0000 </r>
       <r>    3.2247    1.0000 </r>
       <r>    3.2247    1.0000 </r>
       <r>    4.1725    1.0000 </r>
       <r>    4.4848    1.0000 </r>
       <r>    4.4852    1.0000 </r>
       <r>    4.9288    1.0000 </r>
       <r>    4.9361    1.0000 </r>
       <r>    4.9361    1.0000 </r>
       <r>    5.0320    1.0000 </r>
       <r>    5.1897    1.0000 </r>
       <r>    5.3981    1.0000 </r>
       <r>    5.4561    1.0000 </r>
       <r>    5.4561    1.0000 </r>
       <r>    5.7047    1.0000 </r>
       <r>    5.7047    1.0000 </r>
       <r>    5.7256    1.0000 </r>
       <r>    7.9193    0.1381 </r>
       <r>    7.9193   -0.0001 </r>
       <r>   10.1757    0.0000 </r>
       <r>   14.9194    0.0000 </r>
       <r>   15.2679    0.0000 </r>
      </set>
      <set comment="kpoint 6">
       <r>   -0.3009    1.0000 </r>
       <r>    2.5227    1.0000 </r>
       <r>    3.0563    1.0000 </r>
       <r>    3.1514    1.0000 </r>
       <r>    3.3817    1.0000 </r>
       <r>    3.3848    1.0000 </r>
       <r>    3.4097    1.0000 </r>
       <r>    4.0297    1.0000 </r>
       <r>    4.3864    1.0000 </r>
       <r>    4.5025    1.0000 </r>
       <r>    4.5314    1.0000 </r>
       <r>    4.5749    1.0000 </r>
       <r>    4.6091    1.0000 </r>
       <r>    4.9635    1.0000 </r>
       <r>    5.2316    1.0000 </r>
       <r>    5.2649    1.0000 </r>
       <r>    5.2962    1.0000 </r>
       <r>    5.3080    1.0000 </r>
       <r>    5.5706    1.0000 </r>
       <r>    5.6726    1.0000 </r>
       <r>    5.6787    1.0000 </r>
       <r>    6.5133    1.0253 </r>
       <r>    8.9049   -0.0017 </r>
       <r>   11.2189    0.0000 </r>
       <r>   13.1511    0.0000 </r>
       <r>   15.5428    0.0000 </r>
      </set>
      <set comment="kpoint 7">
       <r>    0.6753    1.0000 </r>
       <r>    1.7526    1.0000 </r>
       <r>    3.3542    1.0000 </r>
       <r>    3.4066    1.0000 </r>
       <r>    3.5466    1.0000 </r>
       <r>    3.5953    1.0000 </r>
       <r>    3.6465    1.0000 </r>
       <r>    3.8229    1.0000 </r>
       <r>    3.9549    1.0000 </r>
       <r>    4.0824    1.0000 </r>
       <r>    4.4031    1.0000 </r>
       <r>    4.4772    1.0000 </r>
       <r>    4.7915    1.0000 </r>
       <r>    5.0183    1.0000 </r>
       <r>    5.0634    1.0000 </r>
       <r>    5.0872    1.0000 </r>
       <r>    5.1170    1.0000 </r>
       <r>    5.3418    1.0000 </r>
       <r>    5.4897    1.0000 </r>
       <r>    5.6591    1.0000 </r>
       <r>    5.6599    1.0000 </r>
       <r>    5.7856    1.0026 </r>
       <r>   10.0625   -0.0008 </r>
       <r>   11.3903    0.0000 </r>
       <r>   12.6655    0.0000 </r>
       <r>   14.1437    0.0000 </r>
      </set>
      <set comment="kpoint 8">
       <r>    0.3600    1.0000 </r>
       <r>    2.8863    1.0000 </r>
       <r>    2.8863    1.0000 </r>
       <r>    3.3001    1.0000 </r>
       <r>    3.4939    1.0000 </r>
       <r>    3.5420    1.0000 </r>
       <r>    3.5420    1.0000 </r>
       <r>    3.9794    1.0000 </r>
       <r>    4.1639    1.0000 </r>
       <r>    4.1639    1.0000 </r>
       <r>    4.3094    1.0000 </r>
       <r>    4.4789    1.0000 </r>
       <r>    4.6637    1.0000 </r>
       <r>    4.9332    1.0000 </r>
       <r>    5.0904    1.0000 </r>
       <r>    5.1640    1.0000 </r>
       <r>    5.1640    1.0000 </r>
       <r>    5.4909    1.0000 </r>
       <r>    5.4909    1.0000 </r>
       <r>    5.5014    1.0000 </r>
       <r>    5.5568    1.0000 </r>
       <r>    7.3045    0.9034 </r>
       <r>    7.3045    0.0716 </r>
       <r>   11.0302    0.0000 </r>
       <r>   12.3152    0.0000 </r>
       <r>   16.0325    0.0000 </r>
      </set>
      <set comment="kpoint 9">
       <r>    1.2616    1.0000 </r>
       <r>    2.2211    1.0000 </r>
       <r>    3.2404    1.0000 </r>
       <r>    3.3786    1.0000 </r>
       <r>    3.6397    1.0000 </r>
       <r>    3.7066    1.0000 </r>
       <r>    3.7317    1.0000 </r>
       <r>    3.8633    1.0000 </r>
       <r>    3.9026    1.0000 </r>
       <r>    4.0668    1.0000 </r>
       <r>    4.1889    1.0000 </r>
       <r>    4.3620    1.0000 </r>
       <r>    4.7700    1.0000 </r>
       <r>    4.9516    1.0000 </r>
       <r>    4.9777    1.0000 </r>
       <r>    5.0190    1.0000 </r>
       <r>    5.0191    1.0000 </r>
       <r>    5.2553    1.0000 </r>
       <r>    5.4577    1.0000 </r>
       <r>    5.4792    1.0000 </r>
       <r>    5.8082    1.0000 </r>
       <r>    6.3155    1.0055 </r>
       <r>    8.2665   -0.0543 </r>
       <r>    9.4939    0.0000 </r>
       <r>   13.4979    0.0000 </r>
       <r>   14.9639    0.0000 </r>
      </set>
      <set comment="kpoint 10">
       <r>    2.0151    1.0000 </r>
       <r>    2.7422    1.0000 </r>
       <r>    2.7422    1.0000 </r>
       <r>    3.1364    1.0000 </r>
       <r>    3.8569    1.0000 </r>
       <r>    3.8569    1.0000 </r>
       <r>    3.8754    1.0000 </r>
       <r>    3.8837    1.0000 </r>
       <r>    3.9983    1.0000 </r>
       <r>    4.0431    1.0000 </r>
       <r>    4.0431    1.0000 </r>
       <r>    4.2482    1.0000 </r>
       <r>    4.7479    1.0000 </r>
       <r>    4.8510    1.0000 </r>
       <r>    4.8510    1.0000 </r>
       <r>    4.8521    1.0000 </r>
       <r>    5.0592    1.0000 </r>
       <r>    5.2348    1.0000 </r>
       <r>    5.2348    1.0000 </r>
       <r>    5.3186    1.0000 </r>
       <r>    6.2720    1.0000 </r>
       <r>    7.0141    0.9992 </r>
       <r>    7.0141    0.6939 </r>
       <r>    8.0271    0.0000 </r>
       <r>   14.6693    0.0000 </r>
       <r>   16.0828    0.0000 </r>
      </set>
      <set comment="kpoint 11">
       <r>   -0.6505    1.0000 </r>
       <r>    2.8963    1.0000 </r>
       <r>    2.8963    1.0000 </r>
       <r>    2.8963    1.0000 </r>
       <r>    3.3088    1.0000 </r>
       <r>    3.3088    1.0000 </r>
       <r>    3.3088    1.0000 </r>
       <r>    4.1486    1.0000 </r>
       <r>    4.4947    1.0000 </r>
       <r>    4.4947    1.0000 </r>
       <r>    4.7218    1.0000 </r>
       <r>    4.7218    1.0000 </r>
       <r>    4.7218    1.0000 </r>
       <r>    5.1308    1.0000 </r>
       <r>    5.1308    1.0000 </r>
       <r>    5.2386    1.0000 </r>
       <r>    5.2386    1.0000 </r>
       <r>    5.2386    1.0000 </r>
       <r>    5.7459    1.0000 </r>
       <r>    5.7459    1.0000 </r>
       <r>    5.7459    1.0000 </r>
       <r>    8.4404   -0.1329 </r>
       <r>    8.4404   -0.0001 </r>
       <r>    8.4404    0.0000 </r>
       <r>   15.5336    0.0000 </r>
       <r>   15.5309    0.0000 </r>
      </set>
      <set comment="kpoint 12">
       <r>    0.0260    1.0000 </r>
       <r>    2.6715    1.0000 </r>
       <r>    3.1194    1.0000 </r>
       <r>    3.1194    1.0000 </r>
       <r>    3.4683    1.0000 </r>
       <r>    3.4683    1.0000 </r>
       <r>    3.4755    1.0000 </r>
       <r>    4.0523    1.0000 </r>
       <r>    4.3708    1.0000 </r>
       <r>    4.3708    1.0000 </r>
       <r>    4.4315    1.0000 </r>
       <r>    4.5127    1.0000 </r>
       <r>    4.5435    1.0000 </r>
       <r>    5.0257    1.0000 </r>
       <r>    5.0980    1.0000 </r>
       <r>    5.0980    1.0000 </r>
       <r>    5.1041    1.0000 </r>
       <r>    5.2872    1.0000 </r>
       <r>    5.6985    1.0000 </r>
       <r>    5.6985    1.0000 </r>
       <r>    5.7103    1.0000 </r>
       <r>    6.8676    0.9448 </r>
       <r>    9.2710   -0.0002 </r>
       <r>    9.2710    0.0000 </r>
       <r>   13.6227    0.0000 </r>
       <r>   13.6227    0.0000 </r>
      </set>
      <set comment="kpoint 13">
       <r>    0.9567    1.0000 </r>
       <r>    1.9610    1.0000 </r>
       <r>    3.3375    1.0000 </r>
       <r>    3.3375    1.0000 </r>
       <r>    3.5781    1.0000 </r>
       <r>    3.5781    1.0000 </r>
       <r>    3.6841    1.0000 </r>
       <r>    3.8869    1.0000 </r>
       <r>    4.1302    1.0000 </r>
       <r>    4.1302    1.0000 </r>
       <r>    4.3324    1.0000 </r>
       <r>    4.4328    1.0000 </r>
       <r>    4.6515    1.0000 </r>
       <r>    4.8183    1.0000 </r>
       <r>    4.9809    1.0000 </r>
       <r>    4.9809    1.0000 </r>
       <r>    5.3115    1.0000 </r>
       <r>    5.4581    1.0000 </r>
       <r>    5.6085    1.0000 </r>
       <r>    5.6505    1.0000 </r>
       <r>    5.6505    1.0000 </r>
       <r>    5.8564    1.0203 </r>
       <r>   10.2073   -0.0001 </r>
       <r>   10.2073    0.0000 </r>
       <r>   12.1484    0.0000 </r>
       <r>   12.1484    0.0000 </r>
      </set>
      <set comment="kpoint 14">
       <r>    0.6449    1.0000 </r>
       <r>    2.8802    1.0000 </r>
       <r>    2.8802    1.0000 </r>
       <r>    3.1529    1.0000 </r>
       <r>    3.6237    1.0000 </r>
       <r>    3.6620    1.0000 </r>
       <r>    3.6620    1.0000 </r>
       <r>    4.0642    1.0000 </r>
       <r>    4.2338    1.0000 </r>
       <r>    4.2338    1.0000 </r>
       <r>    4.3233    1.0000 </r>
       <r>    4.4734    1.0000 </r>
       <r>    4.5253    1.0000 </r>
       <r>    4.9010    1.0000 </r>
       <r>    4.9010    1.0000 </r>
       <r>    4.9101    1.0000 </r>
       <r>    5.1507    1.0000 </r>
       <r>    5.4358    1.0000 </r>
       <r>    5.6569    1.0000 </r>
       <r>    5.6695    1.0000 </r>
       <r>    5.6695    1.0000 </r>
       <r>    7.5129    0.6735 </r>
       <r>    7.5129    0.0223 </r>
       <r>    9.7607    0.0000 </r>
       <r>   11.9104    0.0000 </r>
       <r>   14.4240    0.0000 </r>
      </set>
      <set comment="kpoint 15">
       <r>    1.4643    1.0000 </r>
       <r>    2.2947    1.0000 </r>
       <r>    3.0446    1.0000 </r>
       <r>    3.1309    1.0000 </r>
       <r>    3.7706    1.0000 </r>
       <r>    3.8098    1.0000 </r>
       <r>    3.8818    1.0000 </r>
       <r>    4.0181    1.0000 </r>
       <r>    4.1870    1.0000 </r>
       <r>    4.2350    1.0000 </r>
       <r>    4.2722    1.0000 </r>
       <r>    4.3698    1.0000 </r>
       <r>    4.5747    1.0000 </r>
       <r>    4.7095    1.0000 </r>
       <r>    4.8007    1.0000 </r>
       <r>    4.8119    1.0000 </r>
       <r>    5.2940    1.0000 </r>
       <r>    5.5382    1.0000 </r>
       <r>    5.5926    1.0000 </r>
       <r>    5.5948    1.0000 </r>
       <r>    5.7239    1.0000 </r>
       <r>    6.3145    1.0236 </r>
       <r>    8.3749   -0.0511 </r>
       <r>    9.3871    0.0000 </r>
       <r>   11.7251    0.0000 </r>
       <r>   12.8390    0.0000 </r>
      </set>
      <set comment="kpoint 16">
       <r>    2.0735    1.0000 </r>
       <r>    2.6253    1.0000 </r>
       <r>    2.6253    1.0000 </r>
       <r>    2.8951    1.0000 </r>
       <r>    3.9820    1.0000 </r>
       <r>    4.0810    1.0000 </r>
       <r>    4.0810    1.0000 </r>
       <r>    4.1669    1.0000 </r>
       <r>    4.2210    1.0000 </r>
       <r>    4.2210    1.0000 </r>
       <r>    4.2881    1.0000 </r>
       <r>    4.3302    1.0000 </r>
       <r>    4.5474    1.0000 </r>
       <r>    4.6431    1.0000 </r>
       <r>    4.6431    1.0000 </r>
       <r>    4.6622    1.0000 </r>
       <r>    5.2957    1.0000 </r>
       <r>    5.4527    1.0000 </r>
       <r>    5.4527    1.0000 </r>
       <r>    5.4899    1.0000 </r>
       <r>    6.1817    1.0000 </r>
       <r>    6.9941    0.9945 </r>
       <r>    6.9941    0.6767 </r>
       <r>    8.0141    0.0000 </r>
       <r>   12.6000    0.0000 </r>
       <r>   13.9027    0.0000 </r>
      </set>
      <set comment="kpoint 17">
       <r>    1.1630    1.0000 </r>
       <r>    2.8488    1.0000 </r>
       <r>    2.8488    1.0000 </r>
       <r>    2.8488    1.0000 </r>
       <r>    3.8634    1.0000 </r>
       <r>    3.8634    1.0000 </r>
       <r>    3.8634    1.0000 </r>
       <r>    4.2330    1.0000 </r>
       <r>    4.3550    1.0000 </r>
       <r>    4.3550    1.0000 </r>
       <r>    4.3550    1.0000 </r>
       <r>    4.4471    1.0000 </r>
       <r>    4.4471    1.0000 </r>
       <r>    4.7057    1.0000 </r>
       <r>    4.7057    1.0000 </r>
       <r>    4.7057    1.0000 </r>
       <r>    5.3754    1.0000 </r>
       <r>    5.3754    1.0000 </r>
       <r>    5.7126    1.0000 </r>
       <r>    5.7126    1.0000 </r>
       <r>    5.7126    1.0000 </r>
       <r>    7.9120    0.3052 </r>
       <r>    7.9120   -0.0056 </r>
       <r>    7.9120   -0.0002 </r>
       <r>   12.5750    0.0000 </r>
       <r>   12.5750    0.0000 </r>
      </set>
      <set comment="kpoint 18">
       <r>    1.7977    1.0000 </r>
       <r>    2.3921    1.0000 </r>
       <r>    2.8198    1.0000 </r>
       <r>    2.8198    1.0000 </r>
       <r>    3.9876    1.0000 </r>
       <r>    3.9876    1.0000 </r>
       <r>    4.1415    1.0000 </r>
       <r>    4.3509    1.0000 </r>
       <r>    4.3862    1.0000 </r>
       <r>    4.3919    1.0000 </r>
       <r>    4.4525    1.0000 </r>
       <r>    4.5069    1.0000 </r>
       <r>    4.5069    1.0000 </r>
       <r>    4.5430    1.0000 </r>
       <r>    4.6104    1.0000 </r>
       <r>    4.6104    1.0000 </r>
       <r>    5.5625    1.0000 </r>
       <r>    5.5974    1.0000 </r>
       <r>    5.6644    1.0000 </r>
       <r>    5.6644    1.0000 </r>
       <r>    5.6813    1.0000 </r>
       <r>    6.4556    1.0264 </r>
       <r>    8.3451   -0.0717 </r>
       <r>    8.3451   -0.0161 </r>
       <r>   11.3858    0.0000 </r>
       <r>   11.3858    0.0000 </r>
      </set>
      <set comment="kpoint 19">
       <r>    2.1593    1.0000 </r>
       <r>    2.4974    1.0000 </r>
       <r>    2.4974    1.0000 </r>
       <r>    2.6341    1.0000 </r>
       <r>    4.1396    1.0000 </r>
       <r>    4.1989    1.0000 </r>
       <r>    4.1989    1.0000 </r>
       <r>    4.3312    1.0000 </r>
       <r>    4.3991    1.0000 </r>
       <r>    4.4589    1.0000 </r>
       <r>    4.4589    1.0000 </r>
       <r>    4.4794    1.0000 </r>
       <r>    4.7406    1.0000 </r>
       <r>    4.7406    1.0000 </r>
       <r>    4.7760    1.0000 </r>
       <r>    4.7792    1.0000 </r>
       <r>    5.5072    1.0000 </r>
       <r>    5.6310    1.0000 </r>
       <r>    5.6310    1.0000 </r>
       <r>    5.6341    1.0000 </r>
       <r>    5.9876    1.0000 </r>
       <r>    6.9341    0.9957 </r>
       <r>    6.9341    0.7703 </r>
       <r>    7.7248    0.0282 </r>
       <r>   11.2446    0.0000 </r>
       <r>   12.1400    0.0000 </r>
      </set>
      <set comment="kpoint 20">
       <r>    2.2681    1.0000 </r>
       <r>    2.4216    1.0000 </r>
       <r>    2.4216    1.0000 </r>
       <r>    2.4216    1.0000 </r>
       <r>    4.2703    1.0000 </r>
       <r>    4.2703    1.0000 </r>
       <r>    4.2703    1.0000 </r>
       <r>    4.3344    1.0000 </r>
       <r>    4.3344    1.0000 </r>
       <r>    4.3628    1.0000 </r>
       <r>    4.3628    1.0000 </r>
       <r>    4.3628    1.0000 </r>
       <r>    5.2492    1.0000 </r>
       <r>    5.2492    1.0000 </r>
       <r>    5.2492    1.0000 </r>
       <r>    5.6478    1.0000 </r>
       <r>    5.6478    1.0000 </r>
       <r>    5.6922    1.0000 </r>
       <r>    5.6922    1.0000 </r>
       <r>    5.6922    1.0000 </r>
       <r>    5.7396    1.0000 </r>
       <r>    6.8336    0.9991 </r>
       <r>    6.8336    0.9499 </r>
       <r>    6.8336    0.8156 </r>
       <r>   11.1137    0.0000 </r>
       <r>   11.1137    0.0000 </r>
      </set>
     </set>
    </set>
   </array>
  </eigenvalues>
  <separator name="orbital magnetization" >
   <v name="MAGDIPOLOUT">      0.00000000      0.00000000      0.00000000</v>
  </separator>
  <dos>
   <i name="efermi">      7.33409023 </i>
   <total>
    <array>
     <dimension dim="1">gridpoints</dimension>
     <dimension dim="2">spin</dimension>
     <field>energy</field>
     <field>total</field>
     <field>integrated</field>
     <set>
      <set comment="spin 1">
       <r>    -2.6229     0.0000     0.0000 </r>
       <r>    -2.5576     0.0000     0.0000 </r>
       <r>    -2.4922     0.0000     0.0000 </r>
       <r>    -2.4269     0.0000     0.0000 </r>
       <r>    -2.3616     0.0000     0.0000 </r>
       <r>    -2.2963     0.0000     0.0000 </r>
       <r>    -2.2310     0.0000     0.0000 </r>
       <r>    -2.1656     0.0000     0.0000 </r>
       <r>    -2.1003     0.0000     0.0000 </r>
       <r>    -2.0350     0.0000     0.0000 </r>
       <r>    -1.9697     0.0000     0.0000 </r>
       <r>    -1.9044     0.0000     0.0000 </r>
       <r>    -1.8390     0.0000     0.0000 </r>
       <r>    -1.7737     0.0000     0.0000 </r>
       <r>    -1.7084     0.0719     0.0055 </r>
       <r>    -1.6431     0.0968     0.0110 </r>
       <r>    -1.5777     0.1244     0.0182 </r>
       <r>    -1.5124     0.1547     0.0273 </r>
       <r>    -1.4471     0.1877     0.0385 </r>
       <r>    -1.3818     0.2233     0.0519 </r>
       <r>    -1.3165     0.2159     0.0660 </r>
       <r>    -1.2511     0.2305     0.0806 </r>
       <r>    -1.1858     0.2439     0.0961 </r>
       <r>    -1.1205     0.2560     0.1124 </r>
       <r>    -1.0552     0.2669     0.1295 </r>
       <r>    -0.9899     0.2775     0.1472 </r>
       <r>    -0.9245     0.2930     0.1659 </r>
       <r>    -0.8592     0.3094     0.1855 </r>
       <r>    -0.7939     0.3268     0.2063 </r>
       <r>    -0.7286     0.3452     0.2283 </r>
       <r>    -0.6632     0.3644     0.2514 </r>
       <r>    -0.5979     0.3694     0.2753 </r>
       <r>    -0.5326     0.3808     0.2998 </r>
       <r>    -0.4673     0.3911     0.3250 </r>
       <r>    -0.4020     0.4003     0.3509 </r>
       <r>    -0.3366     0.4085     0.3773 </r>
       <r>    -0.2713     0.4199     0.4043 </r>
       <r>    -0.2060     0.4322     0.4322 </r>
       <r>    -0.1407     0.4451     0.4608 </r>
       <r>    -0.0754     0.4588     0.4903 </r>
       <r>    -0.0100     0.4731     0.5208 </r>
       <r>     0.0553     0.4878     0.5521 </r>
       <r>     0.1206     0.5025     0.5845 </r>
       <r>     0.1859     0.5173     0.6178 </r>
       <r>     0.2513     0.5323     0.6521 </r>
       <r>     0.3166     0.5474     0.6873 </r>
       <r>     0.3819     0.6931     0.7379 </r>
       <r>     0.4472     0.7198     0.7841 </r>
       <r>     0.5125     0.7432     0.8319 </r>
       <r>     0.5779     0.7634     0.8811 </r>
       <r>     0.6432     0.7804     0.9315 </r>
       <r>     0.7085     0.7216     0.9808 </r>
       <r>     0.7738     0.7116     1.0276 </r>
       <r>     0.8391     0.7012     1.0737 </r>
       <r>     0.9045     0.6907     1.1192 </r>
       <r>     0.9698     0.6825     1.1640 </r>
       <r>     1.0351     0.6840     1.2086 </r>
       <r>     1.1004     0.6840     1.2533 </r>
       <r>     1.1658     0.6826     1.2979 </r>
       <r>     1.2311     0.6795     1.3424 </r>
       <r>     1.2964     0.6574     1.3861 </r>
       <r>     1.3617     0.6444     1.4286 </r>
       <r>     1.4270     0.6322     1.4703 </r>
       <r>     1.4924     0.8586     1.5250 </r>
       <r>     1.5577     0.9306     1.5833 </r>
       <r>     1.6230     1.0096     1.6467 </r>
       <r>     1.6883     1.0955     1.7154 </r>
       <r>     1.7537     1.1360     1.7899 </r>
       <r>     1.8190     1.1929     1.8658 </r>
       <r>     1.8843     1.2638     1.9460 </r>
       <r>     1.9496     1.3302     2.0308 </r>
       <r>     2.0149     1.4240     2.1206 </r>
       <r>     2.0803     1.5912     2.2450 </r>
       <r>     2.1456     1.5563     2.3477 </r>
       <r>     2.2109     1.5581     2.4515 </r>
       <r>     2.2762     1.4556     2.5593 </r>
       <r>     2.3415     2.0153     2.6742 </r>
       <r>     2.4069     2.6920     2.8215 </r>
       <r>     2.4722     4.3166     3.0826 </r>
       <r>     2.5375     3.6361     3.3321 </r>
       <r>     2.6028     4.9759     3.6182 </r>
       <r>     2.6682     4.7204     3.9313 </r>
       <r>     2.7335     4.8524     4.2441 </r>
       <r>     2.7988     4.4555     4.5843 </r>
       <r>     2.8641     4.7281     4.8811 </r>
       <r>     2.9294     5.1546     5.2020 </r>
       <r>     2.9948     5.7142     5.5575 </r>
       <r>     3.0601     7.0352     5.9772 </r>
       <r>     3.1254     8.7132     6.4738 </r>
       <r>     3.1907     9.1901     7.0924 </r>
       <r>     3.2560     9.6454     7.7031 </r>
       <r>     3.3214    11.0754     8.4131 </r>
       <r>     3.3867     9.1817     9.0668 </r>
       <r>     3.4520     6.3040     9.5080 </r>
       <r>     3.5173     7.4893     9.9567 </r>
       <r>     3.5827     9.2730    10.5849 </r>
       <r>     3.6480     9.5979    11.3325 </r>
       <r>     3.7133     7.1978    11.8688 </r>
       <r>     3.7786     6.1690    12.2997 </r>
       <r>     3.8439     8.9592    12.8335 </r>
       <r>     3.9093    10.2669    13.5204 </r>
       <r>     3.9746    10.7360    14.2132 </r>
       <r>     4.0399    11.1032    14.9342 </r>
       <r>     4.1052    14.4767    16.0228 </r>
       <r>     4.1705    13.4676    16.9023 </r>
       <r>     4.2359    13.5595    17.7981 </r>
       <r>     4.3012    15.3435    18.7520 </r>
       <r>     4.3665    17.5678    19.9007 </r>
       <r>     4.4318    19.8697    21.1746 </r>
       <r>     4.4972    14.8825    22.4263 </r>
       <r>     4.5625    11.9922    23.2064 </r>
       <r>     4.6278    11.2655    23.9854 </r>
       <r>     4.6931    13.9639    24.8194 </r>
       <r>     4.7584    15.6184    25.7648 </r>
       <r>     4.8238     9.5864    26.6124 </r>
       <r>     4.8891    10.6781    27.3087 </r>
       <r>     4.9544    14.5622    28.0852 </r>
       <r>     5.0197    16.2883    29.1965 </r>
       <r>     5.0850    12.6471    30.1931 </r>
       <r>     5.1504    13.5204    31.1554 </r>
       <r>     5.2157    11.5182    31.9637 </r>
       <r>     5.2810    11.3513    32.7663 </r>
       <r>     5.3463    13.5284    33.8563 </r>
       <r>     5.4117    12.9671    34.7310 </r>
       <r>     5.4770    16.3922    35.6223 </r>
       <r>     5.5423    16.5921    36.7142 </r>
       <r>     5.6076    19.1074    37.8054 </r>
       <r>     5.6729    26.3516    39.3792 </r>
       <r>     5.7383    12.7448    40.8111 </r>
       <r>     5.8036     3.7055    41.6643 </r>
       <r>     5.8689     2.3740    41.8536 </r>
       <r>     5.9342     1.9589    41.9884 </r>
       <r>     5.9995     1.6788    42.1103 </r>
       <r>     6.0649     1.5529    42.2157 </r>
       <r>     6.1302     1.4475    42.3136 </r>
       <r>     6.1955     1.4870    42.4071 </r>
       <r>     6.2608     1.3602    42.4999 </r>
       <r>     6.3262     1.2262    42.5834 </r>
       <r>     6.3915     1.2280    42.6636 </r>
       <r>     6.4568     1.2214    42.7437 </r>
       <r>     6.5221     1.2797    42.8242 </r>
       <r>     6.5874     1.3097    42.9087 </r>
       <r>     6.6528     1.3376    42.9952 </r>
       <r>     6.7181     1.3634    43.0834 </r>
       <r>     6.7834     1.3873    43.1733 </r>
       <r>     6.8487     1.9575    43.2843 </r>
       <r>     6.9140     2.1861    43.4199 </r>
       <r>     6.9794     1.9755    43.5558 </r>
       <r>     7.0447     1.0501    43.7099 </r>
       <r>     7.1100     1.0205    43.7775 </r>
       <r>     7.1753     0.9892    43.8432 </r>
       <r>     7.2407     1.0021    43.9086 </r>
       <r>     7.3060     0.9680    43.9729 </r>
       <r>     7.3713     0.9501    44.0355 </r>
       <r>     7.4366     0.9381    44.0972 </r>
       <r>     7.5019     0.9319    44.1582 </r>
       <r>     7.5673     0.9375    44.2192 </r>
       <r>     7.6326     0.9453    44.2807 </r>
       <r>     7.6979     0.9537    44.3427 </r>
       <r>     7.7632     1.0404    44.4081 </r>
       <r>     7.8286     1.0754    44.4771 </r>
       <r>     7.8939     1.1184    44.5487 </r>
       <r>     7.9592     1.1757    44.6236 </r>
       <r>     8.0245     2.9926    44.7202 </r>
       <r>     8.0898     1.2521    44.8179 </r>
       <r>     8.1552     1.2641    44.9001 </r>
       <r>     8.2205     1.2734    44.9830 </r>
       <r>     8.2858     1.2055    45.0651 </r>
       <r>     8.3511     1.2617    45.1421 </r>
       <r>     8.4164     0.9556    45.2172 </r>
       <r>     8.4818     0.9643    45.2799 </r>
       <r>     8.5471     0.9735    45.3431 </r>
       <r>     8.6124     0.9831    45.4070 </r>
       <r>     8.6777     0.9931    45.4716 </r>
       <r>     8.7431     1.0036    45.5368 </r>
       <r>     8.8084     1.0645    45.6169 </r>
       <r>     8.8737     1.0815    45.6870 </r>
       <r>     8.9390     1.0499    45.7567 </r>
       <r>     9.0043     1.0463    45.8252 </r>
       <r>     9.0697     1.0415    45.8934 </r>
       <r>     9.1350     1.0356    45.9612 </r>
       <r>     9.2003     1.0284    46.0286 </r>
[...]
        <r>  0.0659  0.0004  0.0162  0.0277 </r>
        <r>  0.1261  0.0121  0.0201  0.0244 </r>
       </set>
      </set>
      <set comment="kpoint 18">
       <set comment="band 1">
        <r>  0.0728  0.0044  0.0044  0.0121 </r>
        <r>  0.0728  0.0044  0.0044  0.0121 </r>
        <r>  0.0728  0.0044  0.0044  0.0121 </r>
        <r>  0.0728  0.0044  0.0044  0.0121 </r>
       </set>
       <set comment="band 2">
        <r>  0.0472  0.0011  0.0011  0.0119 </r>
        <r>  0.0472  0.0011  0.0011  0.0119 </r>
        <r>  0.0472  0.0011  0.0011  0.0119 </r>
        <r>  0.0472  0.0011  0.0011  0.0119 </r>
       </set>
       <set comment="band 3">
        <r>  0.0424  0.0034  0.0055  0.0000 </r>
        <r>  0.0424  0.0034  0.0055  0.0000 </r>
        <r>  0.0079  0.0001  0.0022  0.0000 </r>
        <r>  0.0079  0.0001  0.0022  0.0000 </r>
       </set>
       <set comment="band 4">
        <r>  0.0079  0.0022  0.0001  0.0000 </r>
        <r>  0.0079  0.0022  0.0001  0.0000 </r>
        <r>  0.0424  0.0055  0.0034  0.0000 </r>
        <r>  0.0424  0.0055  0.0034  0.0000 </r>
       </set>
       <set comment="band 5">
        <r>  0.0000  0.0024  0.0012  0.0031 </r>
        <r>  0.0000  0.0024  0.0012  0.0031 </r>
        <r>  0.0000  0.0016  0.0004  0.0060 </r>
        <r>  0.0000  0.0016  0.0004  0.0060 </r>
       </set>
       <set comment="band 6">
        <r>  0.0000  0.0004  0.0016  0.0060 </r>
        <r>  0.0000  0.0004  0.0016  0.0060 </r>
        <r>  0.0000  0.0012  0.0024  0.0031 </r>
        <r>  0.0000  0.0012  0.0024  0.0031 </r>
       </set>
       <set comment="band 7">
        <r>  0.0009  0.0047  0.0047  0.0023 </r>
        <r>  0.0009  0.0047  0.0047  0.0023 </r>
        <r>  0.0009  0.0047  0.0047  0.0023 </r>
        <r>  0.0009  0.0047  0.0047  0.0023 </r>
       </set>
       <set comment="band 8">
        <r>  0.0034  0.0051  0.0051  0.0045 </r>
        <r>  0.0034  0.0051  0.0051  0.0045 </r>
        <r>  0.0034  0.0051  0.0051  0.0045 </r>
        <r>  0.0034  0.0051  0.0051  0.0045 </r>
       </set>
       <set comment="band 9">
        <r>  0.0067  0.0061  0.0061  0.0064 </r>
        <r>  0.0067  0.0061  0.0061  0.0064 </r>
        <r>  0.0067  0.0061  0.0061  0.0064 </r>
        <r>  0.0067  0.0061  0.0061  0.0064 </r>
       </set>
       <set comment="band 10">
        <r>  0.0058  0.0056  0.0056  0.0086 </r>
        <r>  0.0058  0.0056  0.0056  0.0086 </r>
        <r>  0.0058  0.0056  0.0056  0.0086 </r>
        <r>  0.0058  0.0056  0.0056  0.0086 </r>
       </set>
       <set comment="band 11">
        <r>  0.0000  0.0001  0.0001  0.0000 </r>
        <r>  0.0000  0.0001  0.0001  0.0000 </r>
        <r>  0.0000  0.0001  0.0001  0.0000 </r>
        <r>  0.0000  0.0001  0.0001  0.0000 </r>
       </set>
       <set comment="band 12">
        <r>  0.0002  0.0140  0.0145  0.0025 </r>
        <r>  0.0002  0.0140  0.0145  0.0025 </r>
        <r>  0.0009  0.0032  0.0037  0.0104 </r>
        <r>  0.0009  0.0032  0.0037  0.0104 </r>
       </set>
       <set comment="band 13">
        <r>  0.0009  0.0037  0.0032  0.0104 </r>
        <r>  0.0009  0.0037  0.0032  0.0104 </r>
        <r>  0.0002  0.0145  0.0140  0.0025 </r>
        <r>  0.0002  0.0145  0.0140  0.0025 </r>
       </set>
       <set comment="band 14">
        <r>  0.0000  0.0003  0.0003  0.0000 </r>
        <r>  0.0000  0.0003  0.0003  0.0000 </r>
        <r>  0.0000  0.0003  0.0003  0.0000 </r>
        <r>  0.0000  0.0003  0.0003  0.0000 </r>
       </set>
       <set comment="band 15">
        <r>  0.0000  0.0010  0.0003  0.0007 </r>
        <r>  0.0000  0.0010  0.0003  0.0007 </r>
        <r>  0.0000  0.0009  0.0002  0.0005 </r>
        <r>  0.0000  0.0009  0.0002  0.0005 </r>
       </set>
       <set comment="band 16">
        <r>  0.0000  0.0002  0.0009  0.0005 </r>
        <r>  0.0000  0.0002  0.0009  0.0005 </r>
        <r>  0.0000  0.0003  0.0010  0.0007 </r>
        <r>  0.0000  0.0003  0.0010  0.0007 </r>
       </set>
       <set comment="band 17">
        <r>  0.0000  0.0001  0.0001  0.0000 </r>
        <r>  0.0000  0.0001  0.0001  0.0000 </r>
        <r>  0.0000  0.0001  0.0001  0.0000 </r>
        <r>  0.0000  0.0001  0.0001  0.0000 </r>
       </set>
       <set comment="band 18">
        <r>  0.0054  0.0020  0.0020  0.0045 </r>
        <r>  0.0054  0.0020  0.0020  0.0045 </r>
        <r>  0.0054  0.0020  0.0020  0.0045 </r>
        <r>  0.0054  0.0020  0.0020  0.0045 </r>
       </set>
       <set comment="band 19">
        <r>  0.0000  0.0000  0.0000  0.0000 </r>
        <r>  0.0000  0.0000  0.0000  0.0000 </r>
        <r>  0.0001  0.0000  0.0000  0.0000 </r>
        <r>  0.0001  0.0000  0.0000  0.0000 </r>
       </set>
       <set comment="band 20">
        <r>  0.0001  0.0000  0.0000  0.0000 </r>
        <r>  0.0001  0.0000  0.0000  0.0000 </r>
        <r>  0.0000  0.0000  0.0000  0.0000 </r>
        <r>  0.0000  0.0000  0.0000  0.0000 </r>
       </set>
       <set comment="band 21">
        <r>  0.0000  0.0000  0.0000  0.0000 </r>
        <r>  0.0000  0.0000  0.0000  0.0000 </r>
        <r>  0.0000  0.0000  0.0000  0.0000 </r>
        <r>  0.0000  0.0000  0.0000  0.0000 </r>
       </set>
       <set comment="band 22">
        <r>  0.0179  0.0082  0.0082  0.0185 </r>
        <r>  0.0179  0.0082  0.0082  0.0185 </r>
        <r>  0.0179  0.0082  0.0082  0.0185 </r>
        <r>  0.0179  0.0082  0.0082  0.0185 </r>
       </set>
       <set comment="band 23">
        <r>  0.0033  0.0462  0.0351  0.0178 </r>
        <r>  0.0033  0.0462  0.0351  0.0178 </r>
        <r>  0.0062  0.0273  0.0162  0.0338 </r>
        <r>  0.0062  0.0273  0.0162  0.0338 </r>
       </set>
       <set comment="band 24">
        <r>  0.0062  0.0162  0.0273  0.0338 </r>
        <r>  0.0062  0.0162  0.0273  0.0338 </r>
        <r>  0.0033  0.0351  0.0462  0.0178 </r>
        <r>  0.0033  0.0351  0.0462  0.0178 </r>
       </set>
       <set comment="band 25">
        <r>  0.0921  0.0100  0.0030  0.0038 </r>
        <r>  0.0921  0.0100  0.0030  0.0038 </r>
        <r>  0.1003  0.0103  0.0032  0.0041 </r>
        <r>  0.1003  0.0103  0.0032  0.0041 </r>
       </set>
       <set comment="band 26">
        <r>  0.1003  0.0032  0.0103  0.0041 </r>
        <r>  0.1003  0.0032  0.0103  0.0041 </r>
        <r>  0.0921  0.0030  0.0100  0.0038 </r>
        <r>  0.0921  0.0030  0.0100  0.0038 </r>
       </set>
      </set>
      <set comment="kpoint 19">
       <set comment="band 1">
        <r>  0.0536  0.0054  0.0010  0.0054 </r>
        <r>  0.0536  0.0054  0.0010  0.0054 </r>
        <r>  0.0536  0.0054  0.0010  0.0054 </r>
        <r>  0.0536  0.0054  0.0010  0.0054 </r>
       </set>
       <set comment="band 2">
        <r>  0.0084  0.0058  0.0000  0.0045 </r>
        <r>  0.0653  0.0019  0.0000  0.0006 </r>
        <r>  0.0653  0.0019  0.0000  0.0006 </r>
        <r>  0.0084  0.0058  0.0000  0.0045 </r>
       </set>
       <set comment="band 3">
        <r>  0.0654  0.0006  0.0000  0.0019 </r>
        <r>  0.0084  0.0045  0.0000  0.0058 </r>
        <r>  0.0084  0.0045  0.0000  0.0058 </r>
        <r>  0.0654  0.0006  0.0000  0.0019 </r>
       </set>
       <set comment="band 4">
        <r>  0.0298  0.0013  0.0014  0.0013 </r>
        <r>  0.0298  0.0013  0.0014  0.0013 </r>
        <r>  0.0298  0.0013  0.0014  0.0013 </r>
        <r>  0.0298  0.0013  0.0014  0.0013 </r>
       </set>
       <set comment="band 5">
        <r>  0.0000  0.0016  0.0001  0.0016 </r>
        <r>  0.0000  0.0016  0.0001  0.0016 </r>
        <r>  0.0000  0.0016  0.0001  0.0016 </r>
        <r>  0.0000  0.0016  0.0001  0.0016 </r>
       </set>
       <set comment="band 6">
        <r>  0.0000  0.0006  0.0007  0.0002 </r>
        <r>  0.0000  0.0019  0.0001  0.0015 </r>
        <r>  0.0000  0.0019  0.0001  0.0015 </r>
        <r>  0.0000  0.0006  0.0007  0.0002 </r>
       </set>
       <set comment="band 7">
        <r>  0.0000  0.0015  0.0001  0.0019 </r>
        <r>  0.0000  0.0002  0.0007  0.0006 </r>
        <r>  0.0000  0.0002  0.0007  0.0006 </r>
        <r>  0.0000  0.0015  0.0001  0.0019 </r>
       </set>
       <set comment="band 8">
        <r>  0.0000  0.0003  0.0000  0.0003 </r>
        <r>  0.0000  0.0003  0.0000  0.0003 </r>
        <r>  0.0000  0.0003  0.0000  0.0003 </r>
        <r>  0.0000  0.0003  0.0000  0.0003 </r>
       </set>
       <set comment="band 9">
        <r>  0.0000  0.0000  0.0000  0.0000 </r>
        <r>  0.0000  0.0000  0.0000  0.0000 </r>
        <r>  0.0000  0.0000  0.0000  0.0000 </r>
        <r>  0.0000  0.0000  0.0000  0.0000 </r>
       </set>
       <set comment="band 10">
        <r>  0.0000  0.0000  0.0008  0.0000 </r>
        <r>  0.0000  0.0000  0.0001  0.0000 </r>
        <r>  0.0000  0.0000  0.0001  0.0000 </r>
        <r>  0.0000  0.0000  0.0008  0.0000 </r>
       </set>
       <set comment="band 11">
        <r>  0.0000  0.0000  0.0001  0.0000 </r>
        <r>  0.0000  0.0000  0.0009  0.0000 </r>
        <r>  0.0000  0.0000  0.0009  0.0000 </r>
        <r>  0.0000  0.0000  0.0001  0.0000 </r>
       </set>
       <set comment="band 12">
        <r>  0.0000  0.0002  0.0000  0.0002 </r>
        <r>  0.0000  0.0002  0.0000  0.0002 </r>
        <r>  0.0000  0.0002  0.0000  0.0002 </r>
        <r>  0.0000  0.0002  0.0000  0.0002 </r>
       </set>
       <set comment="band 13">
        <r>  0.0060  0.0025  0.0198  0.0028 </r>
        <r>  0.0008  0.0203  0.0025  0.0206 </r>
        <r>  0.0008  0.0203  0.0025  0.0206 </r>
        <r>  0.0060  0.0025  0.0198  0.0028 </r>
       </set>
       <set comment="band 14">
        <r>  0.0008  0.0206  0.0025  0.0203 </r>
        <r>  0.0060  0.0028  0.0198  0.0025 </r>
        <r>  0.0060  0.0028  0.0198  0.0025 </r>
        <r>  0.0008  0.0206  0.0025  0.0203 </r>
       </set>
       <set comment="band 15">
        <r>  0.0002  0.0104  0.0113  0.0104 </r>
        <r>  0.0002  0.0104  0.0113  0.0104 </r>
        <r>  0.0002  0.0104  0.0113  0.0104 </r>
        <r>  0.0002  0.0104  0.0113  0.0104 </r>
       </set>
       <set comment="band 16">
        <r>  0.0110  0.0157  0.0156  0.0157 </r>
        <r>  0.0110  0.0157  0.0156  0.0157 </r>
        <r>  0.0110  0.0157  0.0156  0.0157 </r>
        <r>  0.0110  0.0157  0.0156  0.0157 </r>
       </set>
       <set comment="band 17">
        <r>  0.0000  0.0001  0.0000  0.0001 </r>
        <r>  0.0000  0.0001  0.0000  0.0001 </r>
        <r>  0.0000  0.0001  0.0000  0.0001 </r>
        <r>  0.0000  0.0001  0.0000  0.0001 </r>
       </set>
       <set comment="band 18">
        <r>  0.0000  0.0000  0.0002  0.0001 </r>
        <r>  0.0000  0.0002  0.0000  0.0003 </r>
        <r>  0.0000  0.0002  0.0000  0.0003 </r>
        <r>  0.0000  0.0000  0.0002  0.0001 </r>
       </set>
       <set comment="band 19">
        <r>  0.0000  0.0003  0.0000  0.0002 </r>
        <r>  0.0000  0.0001  0.0002  0.0000 </r>
        <r>  0.0000  0.0001  0.0002  0.0000 </r>
        <r>  0.0000  0.0003  0.0000  0.0002 </r>
       </set>
       <set comment="band 20">
        <r>  0.0000  0.0000  0.0000  0.0000 </r>
        <r>  0.0000  0.0000  0.0000  0.0000 </r>
        <r>  0.0000  0.0000  0.0000  0.0000 </r>
        <r>  0.0000  0.0000  0.0000  0.0000 </r>
       </set>
       <set comment="band 21">
        <r>  0.0094  0.0079  0.0050  0.0079 </r>
        <r>  0.0094  0.0079  0.0050  0.0079 </r>
        <r>  0.0094  0.0079  0.0050  0.0079 </r>
        <r>  0.0094  0.0079  0.0050  0.0079 </r>
       </set>
       <set comment="band 22">
        <r>  0.0262  0.0040  0.0267  0.0061 </r>
        <r>  0.0034  0.0368  0.0034  0.0388 </r>
        <r>  0.0034  0.0368  0.0034  0.0388 </r>
        <r>  0.0262  0.0040  0.0267  0.0061 </r>
       </set>
       <set comment="band 23">
        <r>  0.0034  0.0389  0.0034  0.0368 </r>
        <r>  0.0262  0.0061  0.0267  0.0040 </r>
        <r>  0.0262  0.0061  0.0267  0.0040 </r>
        <r>  0.0034  0.0389  0.0034  0.0368 </r>
       </set>
       <set comment="band 24">
        <r>  0.0042  0.0301  0.0267  0.0301 </r>
        <r>  0.0042  0.0301  0.0267  0.0301 </r>
        <r>  0.0042  0.0301  0.0267  0.0301 </r>
        <r>  0.0042  0.0301  0.0267  0.0301 </r>
       </set>
       <set comment="band 25">
        <r>  0.0987  0.0001  0.0112  0.0002 </r>
        <r>  0.0978  0.0002  0.0110  0.0002 </r>
        <r>  0.1004  0.0002  0.0115  0.0001 </r>
        <r>  0.0994  0.0002  0.0113  0.0001 </r>
       </set>
       <set comment="band 26">
        <r>  0.1426  0.0031  0.0352  0.0011 </r>
        <r>  0.0183  0.0114  0.0045  0.0094 </r>
        <r>  0.0184  0.0114  0.0045  0.0094 </r>
        <r>  0.1427  0.0031  0.0352  0.0011 </r>
       </set>
      </set>
      <set comment="kpoint 20">
       <set comment="band 1">
        <r>  0.0424  0.0012  0.0012  0.0012 </r>
        <r>  0.0424  0.0012  0.0012  0.0012 </r>
        <r>  0.0424  0.0012  0.0012  0.0012 </r>
        <r>  0.0424  0.0012  0.0012  0.0012 </r>
       </set>
       <set comment="band 2">
        <r>  0.0575  0.0008  0.0003  0.0002 </r>
        <r>  0.0536  0.0008  0.0003  0.0002 </r>
        <r>  0.0032  0.0008  0.0003  0.0002 </r>
        <r>  0.0241  0.0008  0.0003  0.0003 </r>
       </set>
       <set comment="band 3">
        <r>  0.0164  0.0003  0.0008  0.0002 </r>
        <r>  0.0012  0.0003  0.0007  0.0002 </r>
        <r>  0.0966  0.0004  0.0008  0.0003 </r>
        <r>  0.0245  0.0003  0.0008  0.0002 </r>
       </set>
       <set comment="band 4">
        <r>  0.0300  0.0002  0.0002  0.0008 </r>
        <r>  0.0491  0.0002  0.0003  0.0009 </r>
        <r>  0.0042  0.0002  0.0002  0.0008 </r>
        <r>  0.0554  0.0002  0.0003  0.0009 </r>
       </set>
       <set comment="band 5">
        <r>  0.0000  0.0004  0.0001  0.0001 </r>
        <r>  0.0000  0.0002  0.0002  0.0001 </r>
        <r>  0.0000  0.0003  0.0000  0.0004 </r>
        <r>  0.0000  0.0001  0.0000  0.0005 </r>
       </set>
       <set comment="band 6">
        <r>  0.0000  0.0002  0.0003  0.0001 </r>
        <r>  0.0000  0.0003  0.0003  0.0001 </r>
        <r>  0.0000  0.0002  0.0003  0.0001 </r>
        <r>  0.0000  0.0003  0.0003  0.0001 </r>
       </set>
       <set comment="band 7">
        <r>  0.0000  0.0000  0.0002  0.0004 </r>
        <r>  0.0000  0.0001  0.0001  0.0004 </r>
        <r>  0.0000  0.0002  0.0003  0.0001 </r>
        <r>  0.0000  0.0002  0.0003  0.0000 </r>
       </set>
       <set comment="band 8">
        <r>  0.0000  0.0000  0.0000  0.0000 </r>
        <r>  0.0000  0.0000  0.0000  0.0000 </r>
        <r>  0.0000  0.0000  0.0000  0.0000 </r>
        <r>  0.0000  0.0000  0.0000  0.0000 </r>
       </set>
       <set comment="band 9">
        <r>  0.0000  0.0000  0.0000  0.0000 </r>
        <r>  0.0000  0.0000  0.0000  0.0000 </r>
        <r>  0.0000  0.0000  0.0000  0.0000 </r>
        <r>  0.0000  0.0000  0.0000  0.0000 </r>
       </set>
       <set comment="band 10">
        <r>  0.0000  0.0000  0.0001  0.0000 </r>
        <r>  0.0000  0.0001  0.0000  0.0000 </r>
        <r>  0.0000  0.0000  0.0000  0.0000 </r>
        <r>  0.0000  0.0001  0.0001  0.0000 </r>
       </set>
       <set comment="band 11">
        <r>  0.0000  0.0000  0.0000  0.0000 </r>
        <r>  0.0000  0.0001  0.0001  0.0000 </r>
        <r>  0.0000  0.0000  0.0001  0.0001 </r>
        <r>  0.0000  0.0001  0.0000  0.0001 </r>
       </set>
       <set comment="band 12">
        <r>  0.0000  0.0001  0.0001  0.0000 </r>
        <r>  0.0000  0.0000  0.0000  0.0000 </r>
        <r>  0.0000  0.0001  0.0000  0.0001 </r>
        <r>  0.0000  0.0000  0.0001  0.0001 </r>
       </set>
       <set comment="band 13">
        <r>  0.0002  0.0008  0.0221  0.0124 </r>
        <r>  0.0006  0.0222  0.0008  0.0053 </r>
        <r>  0.0000  0.0052  0.0123  0.0221 </r>
        <r>  0.0010  0.0125  0.0053  0.0008 </r>
       </set>
       <set comment="band 14">
        <r>  0.0004  0.0288  0.0012  0.0023 </r>
        <r>  0.0001  0.0012  0.0287  0.0082 </r>
        <r>  0.0013  0.0085  0.0024  0.0013 </r>
        <r>  0.0001  0.0023  0.0082  0.0287 </r>
       </set>
       <set comment="band 15">
        <r>  0.0008  0.0009  0.0072  0.0158 </r>
        <r>  0.0007  0.0070  0.0010  0.0170 </r>
        <r>  0.0000  0.0167  0.0157  0.0071 </r>
        <r>  0.0003  0.0156  0.0169  0.0009 </r>
       </set>
       <set comment="band 16">
        <r>  0.0000  0.0000  0.0000  0.0000 </r>
        <r>  0.0000  0.0000  0.0000  0.0000 </r>
        <r>  0.0000  0.0000  0.0000  0.0000 </r>
        <r>  0.0000  0.0000  0.0000  0.0000 </r>
       </set>
       <set comment="band 17">
        <r>  0.0000  0.0000  0.0000  0.0000 </r>
        <r>  0.0000  0.0000  0.0000  0.0000 </r>
        <r>  0.0000  0.0000  0.0000  0.0000 </r>
        <r>  0.0000  0.0000  0.0000  0.0000 </r>
       </set>
       <set comment="band 18">
        <r>  0.0000  0.0000  0.0000  0.0000 </r>
        <r>  0.0000  0.0000  0.0000  0.0000 </r>
        <r>  0.0000  0.0000  0.0000  0.0000 </r>
        <r>  0.0000  0.0000  0.0000  0.0000 </r>
       </set>
       <set comment="band 19">
        <r>  0.0000  0.0000  0.0000  0.0000 </r>
        <r>  0.0000  0.0000  0.0000  0.0000 </r>
        <r>  0.0000  0.0000  0.0000  0.0000 </r>
        <r>  0.0000  0.0000  0.0000  0.0000 </r>
       </set>
       <set comment="band 20">
        <r>  0.0000  0.0000  0.0000  0.0000 </r>
        <r>  0.0000  0.0000  0.0000  0.0000 </r>
        <r>  0.0000  0.0000  0.0000  0.0000 </r>
        <r>  0.0000  0.0000  0.0000  0.0000 </r>
       </set>
       <set comment="band 21">
        <r>  0.0143  0.0330  0.0330  0.0330 </r>
        <r>  0.0143  0.0330  0.0330  0.0330 </r>
        <r>  0.0143  0.0330  0.0330  0.0330 </r>
        <r>  0.0143  0.0330  0.0330  0.0330 </r>
       </set>
       <set comment="band 22">
        <r>  0.0020  0.0649  0.0078  0.0274 </r>
        <r>  0.0020  0.0082  0.0644  0.0264 </r>
        <r>  0.0052  0.0237  0.0241  0.0089 </r>
        <r>  0.0007  0.0261  0.0247  0.0670 </r>
       </set>
       <set comment="band 23">
        <r>  0.0013  0.0250  0.0648  0.0190 </r>
        <r>  0.0015  0.0629  0.0267  0.0164 </r>
        <r>  0.0020  0.0165  0.0209  0.0625 </r>
        <r>  0.0050  0.0180  0.0173  0.0235 </r>
       </set>
       <set comment="band 24">
        <r>  0.0041  0.0035  0.0209  0.0470 </r>
        <r>  0.0038  0.0222  0.0023  0.0505 </r>
        <r>  0.0002  0.0532  0.0484  0.0220 </r>
        <r>  0.0017  0.0492  0.0514  0.0029 </r>
       </set>
       <set comment="band 25">
        <r>  0.0484  0.0045  0.0001  0.0001 </r>
        <r>  0.0036  0.0005  0.0031  0.0003 </r>
        <r>  0.2846  0.0035  0.0018  0.0041 </r>
        <r>  0.0721  0.0002  0.0000  0.0050 </r>
       </set>
       <set comment="band 26">
        <r>  0.0883  0.0008  0.0032  0.0016 </r>
        <r>  0.1444  0.0039  0.0014  0.0013 </r>
        <r>  0.0126  0.0011  0.0020  0.0010 </r>
        <r>  0.1635  0.0039  0.0028  0.0003 </r>
       </set>
      </set>
     </set>
    </set>
   </array>
  </projected>
 </calculation>
 <structure name="finalpos" >
  <crystal>
   <varray name="basis" >
    <v>       3.64234384      -0.00000000       0.00000000 </v>
    <v>      -0.00000000       3.64234384      -0.00000000 </v>
    <v>      -0.00000000       0.00000000       3.64234384 </v>
   </varray>
   <i name="volume">     48.32176898 </i>
   <varray name="rec_basis" >
    <v>       0.27454849       0.00000000       0.00000000 </v>
    <v>       0.00000000       0.27454849      -0.00000000 </v>
    <v>      -0.00000000       0.00000000       0.27454849 </v>
   </varray>
  </crystal>
  <varray name="positions" >
   <v>      -0.00000000      -0.00000000      -0.00000000 </v>
   <v>      -0.00000000       0.50000000       0.50000000 </v>
   <v>       0.50000000      -0.00000000       0.50000000 </v>
   <v>       0.50000000       0.50000000      -0.00000000 </v>
  </varray>
 </structure>
</modeling>
