unknown system                          
           1
     3.616407    0.000000    0.000000
     0.000000    3.616407    0.000000
     0.000000    0.000000    3.616407
   Cu
   4
unknown system                          
           1
     3.671874   -0.000000    0.000000
    -0.000000    3.671874   -0.000000
    -0.000000    0.000000    3.671874
   Cu
   4
Direct configuration=     1
   0.00000000  0.00000000  0.00000000
   0.00000000  0.50000000  0.50000000
   0.50000000  0.00000000  0.50000000
   0.50000000  0.50000000  0.00000000
unknown system                          
           1
     3.656564   -0.000000    0.000000
    -0.000000    3.656564   -0.000000
    -0.000000    0.000000    3.656564
   Cu
   4
Direct configuration=     2
  -0.00000000 -0.00000000 -0.00000000
  -0.00000000  0.50000000  0.50000000
   0.50000000 -0.00000000  0.50000000
   0.50000000  0.50000000 -0.00000000
unknown system                          
           1
     3.642344   -0.000000    0.000000
    -0.000000    3.642344   -0.000000
    -0.000000    0.000000    3.642344
   Cu
   4
Direct configuration=     3
  -0.00000000 -0.00000000 -0.00000000
  -0.00000000  0.50000000  0.50000000
   0.50000000 -0.00000000  0.50000000
   0.50000000  0.50000000 -0.00000000
unknown system                          
           1
     3.642344   -0.000000    0.000000
    -0.000000    3.642344   -0.000000
    -0.000000    0.000000    3.642344
   Cu
   4
Direct configuration=     4
  -0.00000000 -0.00000000 -0.00000000
  -0.00000000  0.50000000  0.50000000
   0.50000000 -0.00000000  0.50000000
   0.50000000  0.50000000 -0.00000000
