 vasp.5.3.3 18Dez12 (build Apr  3 2013 12:00:03) complex                        
  
 executed on             LinuxIFC date 2017.03.10  10:31:17
 serial version


--------------------------------------------------------------------------------------------------------


 INCAR:
 POTCAR:   PAW_PBE Al 04Jan2001                   
 POTCAR:   PAW_PBE Al 04Jan2001                   
   VRHFIN =Al: s2p1                                                             
   LEXCH  = PE                                                                  
   EATOM  =    53.5387 eV,    3.9350 Ry                                         
                                                                                
   TITEL  = PAW_PBE Al 04Jan2001                                                
   LULTRA =        F    use ultrasoft PP ?                                      
   IUNSCR =        1    unscreen: 0-lin 1-nonlin 2-no                           
   RPACOR =    1.500    partial core radius                                     
   POMASS =   26.982; ZVAL   =    3.000    mass and valenz                      
   RCORE  =    1.900    outmost cutoff radius                                   
   RWIGS  =    2.650; RWIGS  =    1.402    wigner-seitz radius (au A)           
   ENMAX  =  240.300; ENMIN  =  180.225 eV                                      
   ICORE  =        2    local potential                                         
   LCOR   =        T    correct aug charges                                     
   LPAW   =        T    paw PP                                                  
   EAUG   =  291.052                                                            
   DEXC   =    -.041                                                            
   RMAX   =    2.974    core radius for proj-oper                               
   RAUG   =    1.300    factor for augmentation sphere                          
   RDEP   =    1.966    radius for radial grids                                 
   QCUT   =   -4.203; QGAM   =    8.405    optimization parameters              
                                                                                
   Description                                                                  
     l     E      TYP  RCUT    TYP  RCUT                                        
     0   .000     23  1.900                                                     
     0   .000     23  1.900                                                     
     1   .000     23  1.900                                                     
     1  1.000     23  1.900                                                     
     2   .000      7  1.900                                                     
  local pseudopotential read in
  partial core-charges read in
  atomic valenz-charges read in
  non local Contribution for L=           0  read in
    real space projection operators read in
  non local Contribution for L=           0  read in
    real space projection operators read in
  non local Contribution for L=           1  read in
    real space projection operators read in
  non local Contribution for L=           1  read in
    real space projection operators read in
    PAW grid and wavefunctions read in
 
   number of l-projection  operators is LMAX  =           4
   number of lm-projection operators is LMMAX =           8
 
 PAW_PBE Al 04Jan2001                   :
 energy of atom  1       EATOM=  -53.5387
 kinetic energy error for atom=    0.0005 (will be added to EATOM!!)
 
 
 POSCAR:  Aluminum                               
  positions in direct lattice
  No initial velocities read in
 exchange correlation table for  LEXCH =        8
   RHO(1)=    0.500       N(1)  =     2000
   RHO(2)=  100.500       N(2)  =     4000
 


--------------------------------------------------------------------------------------------------------


 ion  position               nearest neighbor table
   1  0.000  0.000  0.000-
 
  LATTYP: Found a face centered cubic cell.
 ALAT       =     4.0500000000
  
  Lattice vectors:
  
 A1 = (   0.0000000000,   2.0250000000,   2.0250000000)
 A2 = (   2.0250000000,   0.0000000000,   2.0250000000)
 A3 = (   2.0250000000,   2.0250000000,   0.0000000000)


Analysis of symmetry for initial positions (statically):
=====================================================================
 Subroutine PRICEL returns:
 Original cell was already a primitive cell.
 

 Routine SETGRP: Setting up the symmetry group for a 
 face centered cubic supercell.


 Subroutine GETGRP returns: Found 48 space group operations
 (whereof 48 operations were pure point group operations)
 out of a pool of 48 trial point group operations.


The static configuration has the point symmetry O_h .


Analysis of symmetry for dynamics (positions and initial velocities):
=====================================================================
 Subroutine PRICEL returns:
 Original cell was already a primitive cell.
 

 Routine SETGRP: Setting up the symmetry group for a 
 face centered cubic supercell.


 Subroutine GETGRP returns: Found 48 space group operations
 (whereof 48 operations were pure point group operations)
 out of a pool of 48 trial point group operations.


The dynamic configuration has the point symmetry O_h .


 irot  :   1
 --------------------------------------------------------------------
 isymop:   1   0   0
           0   1   0
           0   0   1

 gtrans:     0.0000000     0.0000000     0.0000000

 ptrans:     0.0000000     0.0000000     0.0000000
 rotmap:
 (   1->   1) 


 irot  :   2
 --------------------------------------------------------------------
 isymop:  -1   0   0
           0  -1   0
           0   0  -1

 gtrans:     0.0000000     0.0000000     0.0000000

 ptrans:     0.0000000     0.0000000     0.0000000
 rotmap:
 (   1->   1) 


 irot  :   3
 --------------------------------------------------------------------
 isymop:   0   0   1
           1   0   0
           0   1   0

 gtrans:     0.0000000     0.0000000     0.0000000

 ptrans:     0.0000000     0.0000000     0.0000000
 rotmap:
 (   1->   1) 


 irot  :   4
 --------------------------------------------------------------------
 isymop:   0   0  -1
          -1   0   0
           0  -1   0

 gtrans:     0.0000000     0.0000000     0.0000000

 ptrans:     0.0000000     0.0000000     0.0000000
 rotmap:
 (   1->   1) 


 irot  :   5
 --------------------------------------------------------------------
 isymop:   0   1   0
           0   0   1
           1   0   0

 gtrans:     0.0000000     0.0000000     0.0000000

 ptrans:     0.0000000     0.0000000     0.0000000
 rotmap:
 (   1->   1) 


 irot  :   6
 --------------------------------------------------------------------
 isymop:   0  -1   0
           0   0  -1
          -1   0   0

 gtrans:     0.0000000     0.0000000     0.0000000

 ptrans:     0.0000000     0.0000000     0.0000000
 rotmap:
 (   1->   1) 


 irot  :   7
 --------------------------------------------------------------------
 isymop:   1   1   1
           0   0  -1
          -1   0   0

 gtrans:     0.0000000     0.0000000     0.0000000

 ptrans:     0.0000000     0.0000000     0.0000000
 rotmap:
 (   1->   1) 


 irot  :   8
 --------------------------------------------------------------------
 isymop:  -1  -1  -1
           0   0   1
           1   0   0

 gtrans:     0.0000000     0.0000000     0.0000000

 ptrans:     0.0000000     0.0000000     0.0000000
 rotmap:
 (   1->   1) 


 irot  :   9
 --------------------------------------------------------------------
 isymop:   1   1   1
           0  -1   0
           0   0  -1

 gtrans:     0.0000000     0.0000000     0.0000000

 ptrans:     0.0000000     0.0000000     0.0000000
 rotmap:
 (   1->   1) 


 irot  :  10
 --------------------------------------------------------------------
 isymop:  -1  -1  -1
           0   1   0
           0   0   1

 gtrans:     0.0000000     0.0000000     0.0000000

 ptrans:     0.0000000     0.0000000     0.0000000
 rotmap:
 (   1->   1) 


 irot  :  11
 --------------------------------------------------------------------
 isymop:   1   1   1
          -1   0   0
           0  -1   0

 gtrans:     0.0000000     0.0000000     0.0000000

 ptrans:     0.0000000     0.0000000     0.0000000
 rotmap:
 (   1->   1) 


 irot  :  12
 --------------------------------------------------------------------
 isymop:  -1  -1  -1
           1   0   0
           0   1   0

 gtrans:     0.0000000     0.0000000     0.0000000

 ptrans:     0.0000000     0.0000000     0.0000000
 rotmap:
 (   1->   1) 


 irot  :  13
 --------------------------------------------------------------------
 isymop:   0   1   0
           1   0   0
          -1  -1  -1

 gtrans:     0.0000000     0.0000000     0.0000000

 ptrans:     0.0000000     0.0000000     0.0000000
 rotmap:
 (   1->   1) 


 irot  :  14
 --------------------------------------------------------------------
 isymop:   0  -1   0
          -1   0   0
           1   1   1

 gtrans:     0.0000000     0.0000000     0.0000000

 ptrans:     0.0000000     0.0000000     0.0000000
 rotmap:
 (   1->   1) 


 irot  :  15
 --------------------------------------------------------------------
 isymop:   1   0   0
           0   0   1
          -1  -1  -1

 gtrans:     0.0000000     0.0000000     0.0000000

 ptrans:     0.0000000     0.0000000     0.0000000
 rotmap:
 (   1->   1) 


 irot  :  16
 --------------------------------------------------------------------
 isymop:  -1   0   0
           0   0  -1
           1   1   1

 gtrans:     0.0000000     0.0000000     0.0000000

 ptrans:     0.0000000     0.0000000     0.0000000
 rotmap:
 (   1->   1) 


 irot  :  17
 --------------------------------------------------------------------
 isymop:   0   0   1
           0   1   0
          -1  -1  -1

 gtrans:     0.0000000     0.0000000     0.0000000

 ptrans:     0.0000000     0.0000000     0.0000000
 rotmap:
 (   1->   1) 


 irot  :  18
 --------------------------------------------------------------------
 isymop:   0   0  -1
           0  -1   0
           1   1   1

 gtrans:     0.0000000     0.0000000     0.0000000

 ptrans:     0.0000000     0.0000000     0.0000000
 rotmap:
 (   1->   1) 


 irot  :  19
 --------------------------------------------------------------------
 isymop:   0   0  -1
           1   1   1
           0  -1   0

 gtrans:     0.0000000     0.0000000     0.0000000

 ptrans:     0.0000000     0.0000000     0.0000000
 rotmap:
 (   1->   1) 


 irot  :  20
 --------------------------------------------------------------------
 isymop:   0   0   1
          -1  -1  -1
           0   1   0

 gtrans:     0.0000000     0.0000000     0.0000000

 ptrans:     0.0000000     0.0000000     0.0000000
 rotmap:
 (   1->   1) 


 irot  :  21
 --------------------------------------------------------------------
 isymop:   0  -1   0
           1   1   1
          -1   0   0

 gtrans:     0.0000000     0.0000000     0.0000000

 ptrans:     0.0000000     0.0000000     0.0000000
 rotmap:
 (   1->   1) 


 irot  :  22
 --------------------------------------------------------------------
 isymop:   0   1   0
          -1  -1  -1
           1   0   0

 gtrans:     0.0000000     0.0000000     0.0000000

 ptrans:     0.0000000     0.0000000     0.0000000
 rotmap:
 (   1->   1) 


 irot  :  23
 --------------------------------------------------------------------
 isymop:  -1   0   0
           1   1   1
           0   0  -1

 gtrans:     0.0000000     0.0000000     0.0000000

 ptrans:     0.0000000     0.0000000     0.0000000
 rotmap:
 (   1->   1) 


 irot  :  24
 --------------------------------------------------------------------
 isymop:   1   0   0
          -1  -1  -1
           0   0   1

 gtrans:     0.0000000     0.0000000     0.0000000

 ptrans:     0.0000000     0.0000000     0.0000000
 rotmap:
 (   1->   1) 


 irot  :  25
 --------------------------------------------------------------------
 isymop:  -1  -1  -1
           0   1   0
           1   0   0

 gtrans:     0.0000000     0.0000000     0.0000000

 ptrans:     0.0000000     0.0000000     0.0000000
 rotmap:
 (   1->   1) 


 irot  :  26
 --------------------------------------------------------------------
 isymop:   1   1   1
           0  -1   0
          -1   0   0

 gtrans:     0.0000000     0.0000000     0.0000000

 ptrans:     0.0000000     0.0000000     0.0000000
 rotmap:
 (   1->   1) 


 irot  :  27
 --------------------------------------------------------------------
 isymop:  -1  -1  -1
           1   0   0
           0   0   1

 gtrans:     0.0000000     0.0000000     0.0000000

 ptrans:     0.0000000     0.0000000     0.0000000
 rotmap:
 (   1->   1) 


 irot  :  28
 --------------------------------------------------------------------
 isymop:   1   1   1
          -1   0   0
           0   0  -1

 gtrans:     0.0000000     0.0000000     0.0000000

 ptrans:     0.0000000     0.0000000     0.0000000
 rotmap:
 (   1->   1) 


 irot  :  29
 --------------------------------------------------------------------
 isymop:  -1  -1  -1
           0   0   1
           0   1   0

 gtrans:     0.0000000     0.0000000     0.0000000

 ptrans:     0.0000000     0.0000000     0.0000000
 rotmap:
 (   1->   1) 


 irot  :  30
 --------------------------------------------------------------------
 isymop:   1   1   1
           0   0  -1
           0  -1   0

 gtrans:     0.0000000     0.0000000     0.0000000

 ptrans:     0.0000000     0.0000000     0.0000000
 rotmap:
 (   1->   1) 


 irot  :  31
 --------------------------------------------------------------------
 isymop:   0  -1   0
           0   0  -1
           1   1   1

 gtrans:     0.0000000     0.0000000     0.0000000

 ptrans:     0.0000000     0.0000000     0.0000000
 rotmap:
 (   1->   1) 


 irot  :  32
 --------------------------------------------------------------------
 isymop:   0   1   0
           0   0   1
          -1  -1  -1

 gtrans:     0.0000000     0.0000000     0.0000000

 ptrans:     0.0000000     0.0000000     0.0000000
 rotmap:
 (   1->   1) 


 irot  :  33
 --------------------------------------------------------------------
 isymop:  -1   0   0
           0  -1   0
           1   1   1

 gtrans:     0.0000000     0.0000000     0.0000000

 ptrans:     0.0000000     0.0000000     0.0000000
 rotmap:
 (   1->   1) 


 irot  :  34
 --------------------------------------------------------------------
 isymop:   1   0   0
           0   1   0
          -1  -1  -1

 gtrans:     0.0000000     0.0000000     0.0000000

 ptrans:     0.0000000     0.0000000     0.0000000
 rotmap:
 (   1->   1) 


 irot  :  35
 --------------------------------------------------------------------
 isymop:   0   0  -1
          -1   0   0
           1   1   1

 gtrans:     0.0000000     0.0000000     0.0000000

 ptrans:     0.0000000     0.0000000     0.0000000
 rotmap:
 (   1->   1) 


 irot  :  36
 --------------------------------------------------------------------
 isymop:   0   0   1
           1   0   0
          -1  -1  -1

 gtrans:     0.0000000     0.0000000     0.0000000

 ptrans:     0.0000000     0.0000000     0.0000000
 rotmap:
 (   1->   1) 


 irot  :  37
 --------------------------------------------------------------------
 isymop:   1   0   0
          -1  -1  -1
           0   1   0

 gtrans:     0.0000000     0.0000000     0.0000000

 ptrans:     0.0000000     0.0000000     0.0000000
 rotmap:
 (   1->   1) 


 irot  :  38
 --------------------------------------------------------------------
 isymop:  -1   0   0
           1   1   1
           0  -1   0

 gtrans:     0.0000000     0.0000000     0.0000000

 ptrans:     0.0000000     0.0000000     0.0000000
 rotmap:
 (   1->   1) 


 irot  :  39
 --------------------------------------------------------------------
 isymop:   0   0   1
          -1  -1  -1
           1   0   0

 gtrans:     0.0000000     0.0000000     0.0000000

 ptrans:     0.0000000     0.0000000     0.0000000
 rotmap:
 (   1->   1) 


 irot  :  40
 --------------------------------------------------------------------
 isymop:   0   0  -1
           1   1   1
          -1   0   0

 gtrans:     0.0000000     0.0000000     0.0000000

 ptrans:     0.0000000     0.0000000     0.0000000
 rotmap:
 (   1->   1) 


 irot  :  41
 --------------------------------------------------------------------
 isymop:   0   1   0
          -1  -1  -1
           0   0   1

 gtrans:     0.0000000     0.0000000     0.0000000

 ptrans:     0.0000000     0.0000000     0.0000000
 rotmap:
 (   1->   1) 


 irot  :  42
 --------------------------------------------------------------------
 isymop:   0  -1   0
           1   1   1
           0   0  -1

 gtrans:     0.0000000     0.0000000     0.0000000

 ptrans:     0.0000000     0.0000000     0.0000000
 rotmap:
 (   1->   1) 


 irot  :  43
 --------------------------------------------------------------------
 isymop:  -1   0   0
           0   0  -1
           0  -1   0

 gtrans:     0.0000000     0.0000000     0.0000000

 ptrans:     0.0000000     0.0000000     0.0000000
 rotmap:
 (   1->   1) 


 irot  :  44
 --------------------------------------------------------------------
 isymop:   1   0   0
           0   0   1
           0   1   0

 gtrans:     0.0000000     0.0000000     0.0000000

 ptrans:     0.0000000     0.0000000     0.0000000
 rotmap:
 (   1->   1) 


 irot  :  45
 --------------------------------------------------------------------
 isymop:   0  -1   0
          -1   0   0
           0   0  -1

 gtrans:     0.0000000     0.0000000     0.0000000

 ptrans:     0.0000000     0.0000000     0.0000000
 rotmap:
 (   1->   1) 


 irot  :  46
 --------------------------------------------------------------------
 isymop:   0   1   0
           1   0   0
           0   0   1

 gtrans:     0.0000000     0.0000000     0.0000000

 ptrans:     0.0000000     0.0000000     0.0000000
 rotmap:
 (   1->   1) 


 irot  :  47
 --------------------------------------------------------------------
 isymop:   0   0  -1
           0  -1   0
          -1   0   0

 gtrans:     0.0000000     0.0000000     0.0000000

 ptrans:     0.0000000     0.0000000     0.0000000
 rotmap:
 (   1->   1) 


 irot  :  48
 --------------------------------------------------------------------
 isymop:   0   0   1
           0   1   0
           1   0   0

 gtrans:     0.0000000     0.0000000     0.0000000

 ptrans:     0.0000000     0.0000000     0.0000000
 rotmap:
 (   1->   1) 
 
 
 KPOINTS: k-points along high symmetry lines      
  interpolating k-points between supplied coordinates
  k-points in reciprocal lattice
Space group operators:
 irot       det(A)        alpha          n_x          n_y          n_z        tau_x        tau_y        tau_z
    1     1.000000     0.000001     1.000000     0.000000     0.000000     0.000000     0.000000     0.000000
    2    -1.000000     0.000001     1.000000     0.000000     0.000000     0.000000     0.000000     0.000000
    3     1.000000   120.000000    -0.577350    -0.577350    -0.577350     0.000000     0.000000     0.000000
    4    -1.000000   120.000000    -0.577350    -0.577350    -0.577350     0.000000     0.000000     0.000000
    5     1.000000   120.000000     0.577350     0.577350     0.577350     0.000000     0.000000     0.000000
    6    -1.000000   120.000000     0.577350     0.577350     0.577350     0.000000     0.000000     0.000000
    7     1.000000    90.000000     0.000000     0.000000    -1.000000     0.000000     0.000000     0.000000
    8    -1.000000    90.000000     0.000000     0.000000    -1.000000     0.000000     0.000000     0.000000
    9     1.000000   180.000000     0.000000     0.707107     0.707107     0.000000     0.000000     0.000000
   10    -1.000000   180.000000     0.000000     0.707107     0.707107     0.000000     0.000000     0.000000
   11     1.000000    90.000000     0.000000     1.000000     0.000000     0.000000     0.000000     0.000000
   12    -1.000000    90.000000     0.000000     1.000000     0.000000     0.000000     0.000000     0.000000
   13     1.000000   180.000000     0.000000     0.000000     1.000000     0.000000     0.000000     0.000000
   14    -1.000000   180.000000     0.000000     0.000000     1.000000     0.000000     0.000000     0.000000
   15     1.000000   120.000000    -0.577350     0.577350     0.577350     0.000000     0.000000     0.000000
   16    -1.000000   120.000000    -0.577350     0.577350     0.577350     0.000000     0.000000     0.000000
   17     1.000000   120.000000    -0.577350     0.577350    -0.577350     0.000000     0.000000     0.000000
   18    -1.000000   120.000000    -0.577350     0.577350    -0.577350     0.000000     0.000000     0.000000
   19     1.000000    90.000000     0.000000     0.000000     1.000000     0.000000     0.000000     0.000000
   20    -1.000000    90.000000     0.000000     0.000000     1.000000     0.000000     0.000000     0.000000
   21     1.000000    90.000000    -1.000000     0.000000     0.000000     0.000000     0.000000     0.000000
   22    -1.000000    90.000000    -1.000000     0.000000     0.000000     0.000000     0.000000     0.000000
   23     1.000000   180.000000     0.707107     0.000000     0.707107     0.000000     0.000000     0.000000
   24    -1.000000   180.000000     0.707107     0.000000     0.707107     0.000000     0.000000     0.000000
   25     1.000000   120.000000     0.577350    -0.577350     0.577350     0.000000     0.000000     0.000000
   26    -1.000000   120.000000     0.577350    -0.577350     0.577350     0.000000     0.000000     0.000000
   27     1.000000   120.000000    -0.577350    -0.577350     0.577350     0.000000     0.000000     0.000000
   28    -1.000000   120.000000    -0.577350    -0.577350     0.577350     0.000000     0.000000     0.000000
   29     1.000000   180.000000     1.000000     0.000000     0.000000     0.000000     0.000000     0.000000
   30    -1.000000   180.000000     1.000000     0.000000     0.000000     0.000000     0.000000     0.000000
   31     1.000000    90.000000     0.000000    -1.000000     0.000000     0.000000     0.000000     0.000000
   32    -1.000000    90.000000     0.000000    -1.000000     0.000000     0.000000     0.000000     0.000000
   33     1.000000   180.000000     0.707107     0.707107     0.000000     0.000000     0.000000     0.000000
   34    -1.000000   180.000000     0.707107     0.707107     0.000000     0.000000     0.000000     0.000000
   35     1.000000    90.000000     1.000000     0.000000     0.000000     0.000000     0.000000     0.000000
   36    -1.000000    90.000000     1.000000     0.000000     0.000000     0.000000     0.000000     0.000000
   37     1.000000   120.000000     0.577350    -0.577350    -0.577350     0.000000     0.000000     0.000000
   38    -1.000000   120.000000     0.577350    -0.577350    -0.577350     0.000000     0.000000     0.000000
   39     1.000000   180.000000     0.000000     1.000000     0.000000     0.000000     0.000000     0.000000
   40    -1.000000   180.000000     0.000000     1.000000     0.000000     0.000000     0.000000     0.000000
   41     1.000000   120.000000     0.577350     0.577350    -0.577350     0.000000     0.000000     0.000000
   42    -1.000000   120.000000     0.577350     0.577350    -0.577350     0.000000     0.000000     0.000000
   43     1.000000   180.000000     0.000000    -0.707107     0.707107     0.000000     0.000000     0.000000
   44    -1.000000   180.000000     0.000000    -0.707107     0.707107     0.000000     0.000000     0.000000
   45     1.000000   180.000000     0.707107    -0.707107     0.000000     0.000000     0.000000     0.000000
   46    -1.000000   180.000000     0.707107    -0.707107     0.000000     0.000000     0.000000     0.000000
   47     1.000000   180.000000     0.707107     0.000000    -0.707107     0.000000     0.000000     0.000000
   48    -1.000000   180.000000     0.707107     0.000000    -0.707107     0.000000     0.000000     0.000000


--------------------------------------------------------------------------------------------------------




 Dimension of arrays:
   k-points           NKPTS =    250   k-points in BZ     NKDIM =    250   number of bands    NBANDS=     20
   number of dos      NEDOS =    301   number of ions     NIONS =      1
   non local maximal  LDIM  =      4   non local SUM 2l+1 LMDIM =      8
   total plane-waves  NPLWV =   8000
   max r-space proj   IRMAX =      1   max aug-charges    IRDMAX=  18945
   dimension x,y,z NGX =    20 NGY =   20 NGZ =   20
   dimension x,y,z NGXF=    40 NGYF=   40 NGZF=   40
   support grid    NGXF=    40 NGYF=   40 NGZF=   40
   ions per type =               1
 NGX,Y,Z   is equivalent  to a cutoff of  11.61, 11.61, 11.61 a.u.
 NGXF,Y,Z  is equivalent  to a cutoff of  23.22, 23.22, 23.22 a.u.


 I would recommend the setting:
   dimension x,y,z NGX =    19 NGY =   19 NGZ =   19
 SYSTEM =  unknown system                          
 POSCAR =   Aluminum                               

 Startparameter for this run:
   NWRITE =      2    write-flag & timer
   PREC   = accura    normal or accurate (medium, high low for compatibility)
   ISTART =      1    job   : 0-new  1-cont  2-samecut
   ICHARG =     11    charge: 1-file 2-atom 10-const
   ISPIN  =      1    spin polarized calculation?
   LNONCOLLINEAR =      F non collinear calculations
   LSORBIT =      F    spin-orbit coupling
   INIWAV =      1    electr: 0-lowe 1-rand  2-diag
   LASPH  =      F    aspherical Exc in radial PAW
   METAGGA=      F    non-selfconsistent MetaGGA calc.

 Electronic Relaxation 1
   ENCUT  =  400.0 eV  29.40 Ry    5.42 a.u.   4.67  4.67  4.67*2*pi/ulx,y,z
   ENINI  =  400.0     initial cutoff
   ENAUG  =  291.1 eV  augmentation charge cutoff
   NELM   =     60;   NELMIN=  2; NELMDL=  0     # of ELM steps 
   EDIFF  = 0.1E-03   stopping-criterion for ELM
   LREAL  =      F    real-space projection
   NLSPLINE    = F    spline interpolate recip. space projectors
   LCOMPAT=      F    compatible to vasp.4.4
   GGA_COMPAT  = T    GGA compatible to vasp.4.4-vasp.4.6
   LMAXPAW     = -100 max onsite density
   LMAXMIX     =    2 max onsite mixed and CHGCAR
   VOSKOWN=      0    Vosko Wilk Nusair interpolation
   ROPT   =    0.00000
 Ionic relaxation
   EDIFFG = 0.1E-02   stopping-criterion for IOM
   NSW    =    100    number of steps for IOM
   NBLOCK =      1;   KBLOCK =    100    inner block; outer block 
   IBRION =      2    ionic relax: 0-MD 1-quasi-New 2-CG
   NFREE  =      1    steps in history (QN), initial steepest desc. (CG)
   ISIF   =      5    stress and relaxation
   IWAVPR =     11    prediction:  0-non 1-charg 2-wave 3-comb
   ISYM   =      2    0-nonsym 1-usesym 2-fastsym
   LCORR  =      T    Harris-Foulkes like correction to forces

   POTIM  = 0.5000    time-step for ionic-motion
   TEIN   =    0.0    initial temperature
   TEBEG  =    0.0;   TEEND  =   0.0 temperature during run
   SMASS  =  -3.00    Nose mass-parameter (am)
   estimated Nose-frequenzy (Omega)   =  0.10E-29 period in steps =****** mass=  -0.187E-27a.u.
   SCALEE = 1.0000    scale energy and forces
   NPACO  =    256;   APACO  = 16.0  distance and # of slots for P.C.
   PSTRESS=    0.0 pullay stress

  Mass of Ions in am
   POMASS =  26.98
  Ionic Valenz
   ZVAL   =   3.00
  Atomic Wigner-Seitz radii
   RWIGS  =  -1.00
  virtual crystal weights 
   VCA    =   1.00
   NELECT =       3.0000    total number of electrons
   NUPDOWN=      -1.0000    fix difference up-down

 DOS related values:
   EMIN   =  10.00;   EMAX   =-10.00  energy-range for DOS
   EFERMI =   0.00
   ISMEAR =    -1;   SIGMA  =   0.00  broadening in eV -4-tet -1-fermi 0-gaus

 Electronic relaxation 2 (details)
   IALGO  =     38    algorithm
   LDIAG  =      T    sub-space diagonalisation (order eigenvalues)
   LSUBROT=      T    optimize rotation matrix (better conditioning)
   TURBO    =      0    0=normal 1=particle mesh
   IRESTART =      0    0=no restart 2=restart with 2 vectors
   NREBOOT  =      0    no. of reboots
   NMIN     =      0    reboot dimension
   EREF     =   0.00    reference energy to select bands
   IMIX   =      4    mixing-type and parameters
     AMIX     =   0.40;   BMIX     =  1.00
     AMIX_MAG =   1.60;   BMIX_MAG =  1.00
     AMIN     =   0.10
     WC   =   100.;   INIMIX=   1;  MIXPRE=   1;  MAXMIX= -45

 Intra band minimization:
   WEIMIN = 0.0010     energy-eigenvalue tresh-hold
   EBREAK =  0.13E-05  absolut break condition
   DEPER  =   0.30     relativ break condition  

   TIME   =   0.40     timestep for ELM

  volume/ion in A,a.u.               =      16.61       112.07
  Fermi-wavevector in a.u.,A,eV,Ry     =   0.925437  1.748822 11.652489  0.856434
  Thomas-Fermi vector in A             =   2.051291
 
 Write flags
   LWAVE  =      T    write WAVECAR
   LCHARG =      T    write CHGCAR
   LVTOT  =      F    write LOCPOT, total local potential
   LVHAR  =      F    write LOCPOT, Hartree potential only
   LELF   =      F    write electronic localiz. function (ELF)
   LORBIT =      0    0 simple, 1 ext, 2 COOP (PROOUT)


 Dipole corrections
   LMONO  =      F    monopole corrections only (constant potential shift)
   LDIPOL =      F    correct potential (dipole corrections)
   IDIPOL =      0    1-x, 2-y, 3-z, 4-all directions 
   EPSILON=  1.0000000 bulk dielectric constant

 Exchange correlation treatment:
   GGA     =    --    GGA type
   LEXCH   =     8    internal setting for exchange type
   VOSKOWN=      0    Vosko Wilk Nusair interpolation
   LHFCALC =     F    Hartree Fock is set to
   LHFONE  =     F    Hartree Fock one center treatment
   AEXX    =    0.0000 exact exchange contribution

 Linear response parameters
   LEPSILON=     F    determine dielectric tensor
   LRPA    =     F    only Hartree local field effects (RPA)
   LNABLA  =     F    use nabla operator in PAW spheres
   LVEL    =     F    velocity operator in full k-point grid
   LINTERFAST=   F  fast interpolation
   KINTER  =     0    interpolate to denser k-point grid
   CSHIFT  =0.1000    complex shift for real part using Kramers Kronig
   OMEGAMAX=  -1.0    maximum frequency
   DEG_THRESHOLD= 0.2000000E-02 threshold for treating states as degnerate
   RTIME   =    0.100 relaxation time in fs

 Orbital magnetization related:
   ORBITALMAG=     F  switch on orbital magnetization
   LCHIMAG   =     F  perturbation theory with respect to B field
   DQ        =  0.001000  dq finite difference perturbation B field



--------------------------------------------------------------------------------------------------------


 conjugate gradient relaxation of ions
 charge density and potential remain constant during run
 non-spin polarized calculation
 Variant of blocked Davidson
 Davidson routine will perform the subspace rotation
 perform sub-space diagonalisation
    after iterative eigenvector-optimisation
 no mixing
 using additional bands           18
 reciprocal scheme for non local part
 use partial core corrections
 calculate Harris-corrections to forces 
   (improved forces if not selfconsistent)
 use gradient corrections 
 WARNING: stress and forces are not correct
  (second derivative of E(xc) not defined)
 use of overlap-Matrix (Vanderbilt PP)
 Fermi-smearing in eV        SIGMA  =   0.00


--------------------------------------------------------------------------------------------------------


  energy-cutoff  :      400.00
  volume of cell :       16.61
      direct lattice vectors                 reciprocal lattice vectors
     0.000000000  2.025000000  2.025000000    -0.246913580  0.246913580  0.246913580
     2.025000000  0.000000000  2.025000000     0.246913580 -0.246913580  0.246913580
     2.025000000  2.025000000  0.000000000     0.246913580  0.246913580 -0.246913580

  length of vectors
     2.863782464  2.863782464  2.863782464     0.427666866  0.427666866  0.427666866


 
 old parameters found on file WAVECAR:
  energy-cutoff  :      400.00
  volume of cell :       16.61
      direct lattice vectors                 reciprocal lattice vectors
     0.000000000  2.025000000  2.025000000    -0.246913580  0.246913580  0.246913580
     2.025000000  0.000000000  2.025000000     0.246913580 -0.246913580  0.246913580
     2.025000000  2.025000000  0.000000000     0.246913580  0.246913580 -0.246913580

  length of vectors

 
 k-points in units of 2pi/SCALE and weight: k-points along high symmetry lines      
   0.00000000  0.00000000  0.00000000       0.004
   0.00000000  0.00000000  0.02040816       0.004
   0.00000000  0.00000000  0.04081633       0.004
   0.00000000  0.00000000  0.06122449       0.004
   0.00000000  0.00000000  0.08163265       0.004
   0.00000000  0.00000000  0.10204082       0.004
   0.00000000  0.00000000  0.12244898       0.004
   0.00000000  0.00000000  0.14285714       0.004
   0.00000000  0.00000000  0.16326531       0.004
   0.00000000  0.00000000  0.18367347       0.004
   0.00000000  0.00000000  0.20408163       0.004
   0.00000000  0.00000000  0.22448980       0.004
   0.00000000  0.00000000  0.24489796       0.004
   0.00000000  0.00000000  0.26530612       0.004
   0.00000000  0.00000000  0.28571429       0.004
   0.00000000  0.00000000  0.30612245       0.004
   0.00000000  0.00000000  0.32653061       0.004
   0.00000000  0.00000000  0.34693878       0.004
   0.00000000  0.00000000  0.36734694       0.004
   0.00000000  0.00000000  0.38775510       0.004
   0.00000000  0.00000000  0.40816327       0.004
   0.00000000  0.00000000  0.42857143       0.004
   0.00000000  0.00000000  0.44897959       0.004
   0.00000000  0.00000000  0.46938776       0.004
   0.00000000  0.00000000  0.48979592       0.004
   0.00000000  0.00000000  0.51020408       0.004
   0.00000000  0.00000000  0.53061224       0.004
   0.00000000  0.00000000  0.55102041       0.004
   0.00000000  0.00000000  0.57142857       0.004
   0.00000000  0.00000000  0.59183673       0.004
   0.00000000  0.00000000  0.61224490       0.004
   0.00000000  0.00000000  0.63265306       0.004
   0.00000000  0.00000000  0.65306122       0.004
   0.00000000  0.00000000  0.67346939       0.004
   0.00000000  0.00000000  0.69387755       0.004
   0.00000000  0.00000000  0.71428571       0.004
   0.00000000  0.00000000  0.73469388       0.004
   0.00000000  0.00000000  0.75510204       0.004
   0.00000000  0.00000000  0.77551020       0.004
   0.00000000  0.00000000  0.79591837       0.004
   0.00000000  0.00000000  0.81632653       0.004
   0.00000000  0.00000000  0.83673469       0.004
   0.00000000  0.00000000  0.85714286       0.004
   0.00000000  0.00000000  0.87755102       0.004
   0.00000000  0.00000000  0.89795918       0.004
   0.00000000  0.00000000  0.91836735       0.004
   0.00000000  0.00000000  0.93877551       0.004
   0.00000000  0.00000000  0.95918367       0.004
   0.00000000  0.00000000  0.97959184       0.004
   0.00000000  0.00000000  1.00000000       0.004
   0.00000000  0.00000000  1.00000000       0.004
   0.01020408  0.00000000  1.00000000       0.004
   0.02040816 -0.00000000  1.00000000       0.004
   0.03061224  0.00000000  1.00000000       0.004
   0.04081633 -0.00000000  1.00000000       0.004
   0.05102041  0.00000000  1.00000000       0.004
   0.06122449 -0.00000000  1.00000000       0.004
   0.07142857  0.00000000  1.00000000       0.004
   0.08163265 -0.00000000  1.00000000       0.004
   0.09183673 -0.00000000  1.00000000       0.004
   0.10204082  0.00000000  1.00000000       0.004
   0.11224490 -0.00000000  1.00000000       0.004
   0.12244898  0.00000000  1.00000000       0.004
   0.13265306 -0.00000000  1.00000000       0.004
   0.14285714  0.00000000  1.00000000       0.004
   0.15306122 -0.00000000  1.00000000       0.004
   0.16326531  0.00000000  1.00000000       0.004
   0.17346939 -0.00000000  1.00000000       0.004
   0.18367347 -0.00000000  1.00000000       0.004
   0.19387755  0.00000000  1.00000000       0.004
   0.20408163 -0.00000000  1.00000000       0.004
   0.21428571  0.00000000  1.00000000       0.004
   0.22448980 -0.00000000  1.00000000       0.004
   0.23469388  0.00000000  1.00000000       0.004
   0.24489796 -0.00000000  1.00000000       0.004
   0.25510204  0.00000000  1.00000000       0.004
   0.26530612 -0.00000000  1.00000000       0.004
   0.27551020 -0.00000000  1.00000000       0.004
   0.28571429  0.00000000  1.00000000       0.004
   0.29591837 -0.00000000  1.00000000       0.004
   0.30612245  0.00000000  1.00000000       0.004
   0.31632653 -0.00000000  1.00000000       0.004
   0.32653061  0.00000000  1.00000000       0.004
   0.33673469 -0.00000000  1.00000000       0.004
   0.34693878  0.00000000  1.00000000       0.004
   0.35714286 -0.00000000  1.00000000       0.004
   0.36734694 -0.00000000  1.00000000       0.004
   0.37755102  0.00000000  1.00000000       0.004
   0.38775510 -0.00000000  1.00000000       0.004
   0.39795918 -0.00000000  1.00000000       0.004
   0.40816327 -0.00000000  1.00000000       0.004
   0.41836735 -0.00000000  1.00000000       0.004
   0.42857143 -0.00000000  1.00000000       0.004
   0.43877551 -0.00000000  1.00000000       0.004
   0.44897959 -0.00000000  1.00000000       0.004
   0.45918367 -0.00000000  1.00000000       0.004
   0.46938776  0.00000000  1.00000000       0.004
   0.47959184 -0.00000000  1.00000000       0.004
   0.48979592 -0.00000000  1.00000000       0.004
   0.50000000 -0.00000000  1.00000000       0.004
   0.50000000 -0.00000000  1.00000000       0.004
   0.50000000  0.01020408  0.98979592       0.004
   0.50000000  0.02040816  0.97959184       0.004
   0.50000000  0.03061224  0.96938776       0.004
   0.50000000  0.04081633  0.95918367       0.004
   0.50000000  0.05102041  0.94897959       0.004
   0.50000000  0.06122449  0.93877551       0.004
   0.50000000  0.07142857  0.92857143       0.004
   0.50000000  0.08163265  0.91836735       0.004
   0.50000000  0.09183673  0.90816327       0.004
   0.50000000  0.10204082  0.89795918       0.004
   0.50000000  0.11224490  0.88775510       0.004
   0.50000000  0.12244898  0.87755102       0.004
   0.50000000  0.13265306  0.86734694       0.004
   0.50000000  0.14285714  0.85714286       0.004
   0.50000000  0.15306122  0.84693878       0.004
   0.50000000  0.16326531  0.83673469       0.004
   0.50000000  0.17346939  0.82653061       0.004
   0.50000000  0.18367347  0.81632653       0.004
   0.50000000  0.19387755  0.80612245       0.004
   0.50000000  0.20408163  0.79591837       0.004
   0.50000000  0.21428571  0.78571429       0.004
   0.50000000  0.22448980  0.77551020       0.004
   0.50000000  0.23469388  0.76530612       0.004
   0.50000000  0.24489796  0.75510204       0.004
   0.50000000  0.25510204  0.74489796       0.004
   0.50000000  0.26530612  0.73469388       0.004
   0.50000000  0.27551020  0.72448980       0.004
   0.50000000  0.28571429  0.71428571       0.004
   0.50000000  0.29591837  0.70408163       0.004
   0.50000000  0.30612245  0.69387755       0.004
   0.50000000  0.31632653  0.68367347       0.004
   0.50000000  0.32653061  0.67346939       0.004
   0.50000000  0.33673469  0.66326531       0.004
   0.50000000  0.34693878  0.65306122       0.004
   0.50000000  0.35714286  0.64285714       0.004
   0.50000000  0.36734694  0.63265306       0.004
   0.50000000  0.37755102  0.62244898       0.004
   0.50000000  0.38775510  0.61224490       0.004
   0.50000000  0.39795918  0.60204082       0.004
   0.50000000  0.40816327  0.59183673       0.004
   0.50000000  0.41836735  0.58163265       0.004
   0.50000000  0.42857143  0.57142857       0.004
   0.50000000  0.43877551  0.56122449       0.004
   0.50000000  0.44897959  0.55102041       0.004
   0.50000000  0.45918367  0.54081633       0.004
   0.50000000  0.46938776  0.53061224       0.004
   0.50000000  0.47959184  0.52040816       0.004
   0.50000000  0.48979592  0.51020408       0.004
   0.50000000  0.50000000  0.50000000       0.004
   0.50000000  0.50000000  0.50000000       0.004
   0.48979592  0.48979592  0.48979592       0.004
   0.47959184  0.47959184  0.47959184       0.004
   0.46938776  0.46938776  0.46938776       0.004
   0.45918367  0.45918367  0.45918367       0.004
   0.44897959  0.44897959  0.44897959       0.004
   0.43877551  0.43877551  0.43877551       0.004
   0.42857143  0.42857143  0.42857143       0.004
   0.41836735  0.41836735  0.41836735       0.004
   0.40816327  0.40816327  0.40816327       0.004
   0.39795918  0.39795918  0.39795918       0.004
   0.38775510  0.38775510  0.38775510       0.004
   0.37755102  0.37755102  0.37755102       0.004
   0.36734694  0.36734694  0.36734694       0.004
   0.35714286  0.35714286  0.35714286       0.004
   0.34693878  0.34693878  0.34693878       0.004
   0.33673469  0.33673469  0.33673469       0.004
   0.32653061  0.32653061  0.32653061       0.004
   0.31632653  0.31632653  0.31632653       0.004
   0.30612245  0.30612245  0.30612245       0.004
   0.29591837  0.29591837  0.29591837       0.004
   0.28571429  0.28571429  0.28571429       0.004
   0.27551020  0.27551020  0.27551020       0.004
   0.26530612  0.26530612  0.26530612       0.004
   0.25510204  0.25510204  0.25510204       0.004
   0.24489796  0.24489796  0.24489796       0.004
   0.23469388  0.23469388  0.23469388       0.004
   0.22448980  0.22448980  0.22448980       0.004
   0.21428571  0.21428571  0.21428571       0.004
   0.20408163  0.20408163  0.20408163       0.004
   0.19387755  0.19387755  0.19387755       0.004
   0.18367347  0.18367347  0.18367347       0.004
   0.17346939  0.17346939  0.17346939       0.004
   0.16326531  0.16326531  0.16326531       0.004
   0.15306122  0.15306122  0.15306122       0.004
   0.14285714  0.14285714  0.14285714       0.004
   0.13265306  0.13265306  0.13265306       0.004
   0.12244898  0.12244898  0.12244898       0.004
   0.11224490  0.11224490  0.11224490       0.004
   0.10204082  0.10204082  0.10204082       0.004
   0.09183673  0.09183673  0.09183673       0.004
   0.08163265  0.08163265  0.08163265       0.004
   0.07142857  0.07142857  0.07142857       0.004
   0.06122449  0.06122449  0.06122449       0.004
   0.05102041  0.05102041  0.05102041       0.004
   0.04081633  0.04081633  0.04081633       0.004
   0.03061224  0.03061224  0.03061224       0.004
   0.02040816  0.02040816  0.02040816       0.004
   0.01020408  0.01020408  0.01020408       0.004
   0.00000000  0.00000000  0.00000000       0.004
   0.00000000  0.00000000  0.00000000       0.004
   0.01530612  0.00000000  0.01530612       0.004
   0.03061224  0.00000000  0.03061224       0.004
   0.04591837  0.00000000  0.04591837       0.004
   0.06122449  0.00000000  0.06122449       0.004
   0.07653061  0.00000000  0.07653061       0.004
   0.09183673  0.00000000  0.09183673       0.004
   0.10714286  0.00000000  0.10714286       0.004
   0.12244898  0.00000000  0.12244898       0.004
   0.13775510  0.00000000  0.13775510       0.004
   0.15306122  0.00000000  0.15306122       0.004
   0.16836735  0.00000000  0.16836735       0.004
   0.18367347  0.00000000  0.18367347       0.004
   0.19897959  0.00000000  0.19897959       0.004
   0.21428571  0.00000000  0.21428571       0.004
   0.22959184  0.00000000  0.22959184       0.004
   0.24489796  0.00000000  0.24489796       0.004
   0.26020408  0.00000000  0.26020408       0.004
   0.27551020  0.00000000  0.27551020       0.004
   0.29081633  0.00000000  0.29081633       0.004
   0.30612245  0.00000000  0.30612245       0.004
   0.32142857  0.00000000  0.32142857       0.004
   0.33673469  0.00000000  0.33673469       0.004
   0.35204082  0.00000000  0.35204082       0.004
   0.36734694  0.00000000  0.36734694       0.004
   0.38265306  0.00000000  0.38265306       0.004
   0.39795918  0.00000000  0.39795918       0.004
   0.41326531  0.00000000  0.41326531       0.004
   0.42857143  0.00000000  0.42857143       0.004
   0.44387755  0.00000000  0.44387755       0.004
   0.45918367  0.00000000  0.45918367       0.004
   0.47448980  0.00000000  0.47448980       0.004
   0.48979592  0.00000000  0.48979592       0.004
   0.50510204  0.00000000  0.50510204       0.004
   0.52040816  0.00000000  0.52040816       0.004
   0.53571429  0.00000000  0.53571429       0.004
   0.55102041  0.00000000  0.55102041       0.004
   0.56632653  0.00000000  0.56632653       0.004
   0.58163265  0.00000000  0.58163265       0.004
   0.59693878  0.00000000  0.59693878       0.004
   0.61224490  0.00000000  0.61224490       0.004
   0.62755102  0.00000000  0.62755102       0.004
   0.64285714  0.00000000  0.64285714       0.004
   0.65816327  0.00000000  0.65816327       0.004
   0.67346939  0.00000000  0.67346939       0.004
   0.68877551  0.00000000  0.68877551       0.004
   0.70408163  0.00000000  0.70408163       0.004
   0.71938776  0.00000000  0.71938776       0.004
   0.73469388  0.00000000  0.73469388       0.004
   0.75000000  0.00000000  0.75000000       0.004
 
 k-points in reciprocal lattice and weights: k-points along high symmetry lines      
   0.00000000  0.00000000  0.00000000       0.004
   0.01020408  0.01020408  0.00000000       0.004
   0.02040816  0.02040816  0.00000000       0.004
   0.03061224  0.03061224  0.00000000       0.004
   0.04081633  0.04081633  0.00000000       0.004
   0.05102041  0.05102041  0.00000000       0.004
   0.06122449  0.06122449  0.00000000       0.004
   0.07142857  0.07142857  0.00000000       0.004
   0.08163265  0.08163265  0.00000000       0.004
   0.09183673  0.09183673  0.00000000       0.004
   0.10204082  0.10204082  0.00000000       0.004
   0.11224490  0.11224490  0.00000000       0.004
   0.12244898  0.12244898  0.00000000       0.004
   0.13265306  0.13265306  0.00000000       0.004
   0.14285714  0.14285714  0.00000000       0.004
   0.15306122  0.15306122  0.00000000       0.004
   0.16326531  0.16326531  0.00000000       0.004
   0.17346939  0.17346939  0.00000000       0.004
   0.18367347  0.18367347  0.00000000       0.004
   0.19387755  0.19387755  0.00000000       0.004
   0.20408163  0.20408163  0.00000000       0.004
   0.21428571  0.21428571  0.00000000       0.004
   0.22448980  0.22448980  0.00000000       0.004
   0.23469388  0.23469388  0.00000000       0.004
   0.24489796  0.24489796  0.00000000       0.004
   0.25510204  0.25510204  0.00000000       0.004
   0.26530612  0.26530612  0.00000000       0.004
   0.27551020  0.27551020  0.00000000       0.004
   0.28571429  0.28571429  0.00000000       0.004
   0.29591837  0.29591837  0.00000000       0.004
   0.30612245  0.30612245  0.00000000       0.004
   0.31632653  0.31632653  0.00000000       0.004
   0.32653061  0.32653061  0.00000000       0.004
   0.33673469  0.33673469  0.00000000       0.004
   0.34693878  0.34693878  0.00000000       0.004
   0.35714286  0.35714286  0.00000000       0.004
   0.36734694  0.36734694  0.00000000       0.004
   0.37755102  0.37755102  0.00000000       0.004
   0.38775510  0.38775510  0.00000000       0.004
   0.39795918  0.39795918  0.00000000       0.004
   0.40816327  0.40816327  0.00000000       0.004
   0.41836735  0.41836735  0.00000000       0.004
   0.42857143  0.42857143  0.00000000       0.004
   0.43877551  0.43877551  0.00000000       0.004
   0.44897959  0.44897959  0.00000000       0.004
   0.45918367  0.45918367  0.00000000       0.004
   0.46938776  0.46938776  0.00000000       0.004
   0.47959184  0.47959184  0.00000000       0.004
   0.48979592  0.48979592  0.00000000       0.004
   0.50000000  0.50000000  0.00000000       0.004
   0.50000000  0.50000000  0.00000000       0.004
   0.50000000  0.50510204  0.00510204       0.004
   0.50000000  0.51020408  0.01020408       0.004
   0.50000000  0.51530612  0.01530612       0.004
   0.50000000  0.52040816  0.02040816       0.004
   0.50000000  0.52551020  0.02551020       0.004
   0.50000000  0.53061224  0.03061224       0.004
   0.50000000  0.53571429  0.03571429       0.004
   0.50000000  0.54081633  0.04081633       0.004
   0.50000000  0.54591837  0.04591837       0.004
   0.50000000  0.55102041  0.05102041       0.004
   0.50000000  0.55612245  0.05612245       0.004
   0.50000000  0.56122449  0.06122449       0.004
   0.50000000  0.56632653  0.06632653       0.004
   0.50000000  0.57142857  0.07142857       0.004
   0.50000000  0.57653061  0.07653061       0.004
   0.50000000  0.58163265  0.08163265       0.004
   0.50000000  0.58673469  0.08673469       0.004
   0.50000000  0.59183673  0.09183673       0.004
   0.50000000  0.59693878  0.09693878       0.004
   0.50000000  0.60204082  0.10204082       0.004
   0.50000000  0.60714286  0.10714286       0.004
   0.50000000  0.61224490  0.11224490       0.004
   0.50000000  0.61734694  0.11734694       0.004
   0.50000000  0.62244898  0.12244898       0.004
   0.50000000  0.62755102  0.12755102       0.004
   0.50000000  0.63265306  0.13265306       0.004
   0.50000000  0.63775510  0.13775510       0.004
   0.50000000  0.64285714  0.14285714       0.004
   0.50000000  0.64795918  0.14795918       0.004
   0.50000000  0.65306122  0.15306122       0.004
   0.50000000  0.65816327  0.15816327       0.004
   0.50000000  0.66326531  0.16326531       0.004
   0.50000000  0.66836735  0.16836735       0.004
   0.50000000  0.67346939  0.17346939       0.004
   0.50000000  0.67857143  0.17857143       0.004
   0.50000000  0.68367347  0.18367347       0.004
   0.50000000  0.68877551  0.18877551       0.004
   0.50000000  0.69387755  0.19387755       0.004
   0.50000000  0.69897959  0.19897959       0.004
   0.50000000  0.70408163  0.20408163       0.004
   0.50000000  0.70918367  0.20918367       0.004
   0.50000000  0.71428571  0.21428571       0.004
   0.50000000  0.71938776  0.21938776       0.004
   0.50000000  0.72448980  0.22448980       0.004
   0.50000000  0.72959184  0.22959184       0.004
   0.50000000  0.73469388  0.23469388       0.004
   0.50000000  0.73979592  0.23979592       0.004
   0.50000000  0.74489796  0.24489796       0.004
   0.50000000  0.75000000  0.25000000       0.004
   0.50000000  0.75000000  0.25000000       0.004
   0.50000000  0.74489796  0.25510204       0.004
   0.50000000  0.73979592  0.26020408       0.004
   0.50000000  0.73469388  0.26530612       0.004
   0.50000000  0.72959184  0.27040816       0.004
   0.50000000  0.72448980  0.27551020       0.004
   0.50000000  0.71938776  0.28061224       0.004
   0.50000000  0.71428571  0.28571429       0.004
   0.50000000  0.70918367  0.29081633       0.004
   0.50000000  0.70408163  0.29591837       0.004
   0.50000000  0.69897959  0.30102041       0.004
   0.50000000  0.69387755  0.30612245       0.004
   0.50000000  0.68877551  0.31122449       0.004
   0.50000000  0.68367347  0.31632653       0.004
   0.50000000  0.67857143  0.32142857       0.004
   0.50000000  0.67346939  0.32653061       0.004
   0.50000000  0.66836735  0.33163265       0.004
   0.50000000  0.66326531  0.33673469       0.004
   0.50000000  0.65816327  0.34183673       0.004
   0.50000000  0.65306122  0.34693878       0.004
   0.50000000  0.64795918  0.35204082       0.004
   0.50000000  0.64285714  0.35714286       0.004
   0.50000000  0.63775510  0.36224490       0.004
   0.50000000  0.63265306  0.36734694       0.004
   0.50000000  0.62755102  0.37244898       0.004
   0.50000000  0.62244898  0.37755102       0.004
   0.50000000  0.61734694  0.38265306       0.004
   0.50000000  0.61224490  0.38775510       0.004
   0.50000000  0.60714286  0.39285714       0.004
   0.50000000  0.60204082  0.39795918       0.004
   0.50000000  0.59693878  0.40306122       0.004
   0.50000000  0.59183673  0.40816327       0.004
   0.50000000  0.58673469  0.41326531       0.004
   0.50000000  0.58163265  0.41836735       0.004
   0.50000000  0.57653061  0.42346939       0.004
   0.50000000  0.57142857  0.42857143       0.004
   0.50000000  0.56632653  0.43367347       0.004
   0.50000000  0.56122449  0.43877551       0.004
   0.50000000  0.55612245  0.44387755       0.004
   0.50000000  0.55102041  0.44897959       0.004
   0.50000000  0.54591837  0.45408163       0.004
   0.50000000  0.54081633  0.45918367       0.004
   0.50000000  0.53571429  0.46428571       0.004
   0.50000000  0.53061224  0.46938776       0.004
   0.50000000  0.52551020  0.47448980       0.004
   0.50000000  0.52040816  0.47959184       0.004
   0.50000000  0.51530612  0.48469388       0.004
   0.50000000  0.51020408  0.48979592       0.004
   0.50000000  0.50510204  0.49489796       0.004
   0.50000000  0.50000000  0.50000000       0.004
   0.50000000  0.50000000  0.50000000       0.004
   0.48979592  0.48979592  0.48979592       0.004
   0.47959184  0.47959184  0.47959184       0.004
   0.46938776  0.46938776  0.46938776       0.004
   0.45918367  0.45918367  0.45918367       0.004
   0.44897959  0.44897959  0.44897959       0.004
   0.43877551  0.43877551  0.43877551       0.004
   0.42857143  0.42857143  0.42857143       0.004
   0.41836735  0.41836735  0.41836735       0.004
   0.40816327  0.40816327  0.40816327       0.004
   0.39795918  0.39795918  0.39795918       0.004
   0.38775510  0.38775510  0.38775510       0.004
   0.37755102  0.37755102  0.37755102       0.004
   0.36734694  0.36734694  0.36734694       0.004
   0.35714286  0.35714286  0.35714286       0.004
   0.34693878  0.34693878  0.34693878       0.004
   0.33673469  0.33673469  0.33673469       0.004
   0.32653061  0.32653061  0.32653061       0.004
   0.31632653  0.31632653  0.31632653       0.004
   0.30612245  0.30612245  0.30612245       0.004
   0.29591837  0.29591837  0.29591837       0.004
   0.28571429  0.28571429  0.28571429       0.004
   0.27551020  0.27551020  0.27551020       0.004
   0.26530612  0.26530612  0.26530612       0.004
   0.25510204  0.25510204  0.25510204       0.004
   0.24489796  0.24489796  0.24489796       0.004
   0.23469388  0.23469388  0.23469388       0.004
   0.22448980  0.22448980  0.22448980       0.004
   0.21428571  0.21428571  0.21428571       0.004
   0.20408163  0.20408163  0.20408163       0.004
   0.19387755  0.19387755  0.19387755       0.004
   0.18367347  0.18367347  0.18367347       0.004
   0.17346939  0.17346939  0.17346939       0.004
   0.16326531  0.16326531  0.16326531       0.004
   0.15306122  0.15306122  0.15306122       0.004
   0.14285714  0.14285714  0.14285714       0.004
   0.13265306  0.13265306  0.13265306       0.004
   0.12244898  0.12244898  0.12244898       0.004
   0.11224490  0.11224490  0.11224490       0.004
   0.10204082  0.10204082  0.10204082       0.004
   0.09183673  0.09183673  0.09183673       0.004
   0.08163265  0.08163265  0.08163265       0.004
   0.07142857  0.07142857  0.07142857       0.004
   0.06122449  0.06122449  0.06122449       0.004
   0.05102041  0.05102041  0.05102041       0.004
   0.04081633  0.04081633  0.04081633       0.004
   0.03061224  0.03061224  0.03061224       0.004
   0.02040816  0.02040816  0.02040816       0.004
   0.01020408  0.01020408  0.01020408       0.004
   0.00000000  0.00000000  0.00000000       0.004
   0.00000000  0.00000000  0.00000000       0.004
   0.00765306  0.01530612  0.00765306       0.004
   0.01530612  0.03061224  0.01530612       0.004
   0.02295918  0.04591837  0.02295918       0.004
   0.03061224  0.06122449  0.03061224       0.004
   0.03826531  0.07653061  0.03826531       0.004
   0.04591837  0.09183673  0.04591837       0.004
   0.05357143  0.10714286  0.05357143       0.004
   0.06122449  0.12244898  0.06122449       0.004
   0.06887755  0.13775510  0.06887755       0.004
   0.07653061  0.15306122  0.07653061       0.004
   0.08418367  0.16836735  0.08418367       0.004
   0.09183673  0.18367347  0.09183673       0.004
   0.09948980  0.19897959  0.09948980       0.004
   0.10714286  0.21428571  0.10714286       0.004
   0.11479592  0.22959184  0.11479592       0.004
   0.12244898  0.24489796  0.12244898       0.004
   0.13010204  0.26020408  0.13010204       0.004
   0.13775510  0.27551020  0.13775510       0.004
   0.14540816  0.29081633  0.14540816       0.004
   0.15306122  0.30612245  0.15306122       0.004
   0.16071429  0.32142857  0.16071429       0.004
   0.16836735  0.33673469  0.16836735       0.004
   0.17602041  0.35204082  0.17602041       0.004
   0.18367347  0.36734694  0.18367347       0.004
   0.19132653  0.38265306  0.19132653       0.004
   0.19897959  0.39795918  0.19897959       0.004
   0.20663265  0.41326531  0.20663265       0.004
   0.21428571  0.42857143  0.21428571       0.004
   0.22193878  0.44387755  0.22193878       0.004
   0.22959184  0.45918367  0.22959184       0.004
   0.23724490  0.47448980  0.23724490       0.004
   0.24489796  0.48979592  0.24489796       0.004
   0.25255102  0.50510204  0.25255102       0.004
   0.26020408  0.52040816  0.26020408       0.004
   0.26785714  0.53571429  0.26785714       0.004
   0.27551020  0.55102041  0.27551020       0.004
   0.28316327  0.56632653  0.28316327       0.004
   0.29081633  0.58163265  0.29081633       0.004
   0.29846939  0.59693878  0.29846939       0.004
   0.30612245  0.61224490  0.30612245       0.004
   0.31377551  0.62755102  0.31377551       0.004
   0.32142857  0.64285714  0.32142857       0.004
   0.32908163  0.65816327  0.32908163       0.004
   0.33673469  0.67346939  0.33673469       0.004
   0.34438776  0.68877551  0.34438776       0.004
   0.35204082  0.70408163  0.35204082       0.004
   0.35969388  0.71938776  0.35969388       0.004
   0.36734694  0.73469388  0.36734694       0.004
   0.37500000  0.75000000  0.37500000       0.004
 
 position of ions in fractional coordinates (direct lattice) 
   0.00000000  0.00000000  0.00000000
 
 position of ions in cartesian coordinates  (Angst):
   0.00000000  0.00000000  0.00000000
 


--------------------------------------------------------------------------------------------------------


 k-point  1 :   0.0000 0.0000 0.0000  plane waves:     307
 k-point  2 :   0.0102 0.0102 0.0000  plane waves:     307
 k-point  3 :   0.0204 0.0204 0.0000  plane waves:     311
 k-point  4 :   0.0306 0.0306 0.0000  plane waves:     311
 k-point  5 :   0.0408 0.0408 0.0000  plane waves:     307
 k-point  6 :   0.0510 0.0510 0.0000  plane waves:     307
 k-point  7 :   0.0612 0.0612 0.0000  plane waves:     307
 k-point  8 :   0.0714 0.0714 0.0000  plane waves:     307
 k-point  9 :   0.0816 0.0816 0.0000  plane waves:     307
 k-point 10 :   0.0918 0.0918 0.0000  plane waves:     307
 k-point 11 :   0.1020 0.1020 0.0000  plane waves:     307
 k-point 12 :   0.1122 0.1122 0.0000  plane waves:     307
 k-point 13 :   0.1224 0.1224 0.0000  plane waves:     307
 k-point 14 :   0.1327 0.1327 0.0000  plane waves:     307
 k-point 15 :   0.1429 0.1429 0.0000  plane waves:     307
 k-point 16 :   0.1531 0.1531 0.0000  plane waves:     303
 k-point 17 :   0.1633 0.1633 0.0000  plane waves:     303
 k-point 18 :   0.1735 0.1735 0.0000  plane waves:     303
 k-point 19 :   0.1837 0.1837 0.0000  plane waves:     303
 k-point 20 :   0.1939 0.1939 0.0000  plane waves:     303
 k-point 21 :   0.2041 0.2041 0.0000  plane waves:     303
 k-point 22 :   0.2143 0.2143 0.0000  plane waves:     303
 k-point 23 :   0.2245 0.2245 0.0000  plane waves:     303
 k-point 24 :   0.2347 0.2347 0.0000  plane waves:     303
 k-point 25 :   0.2449 0.2449 0.0000  plane waves:     303
 k-point 26 :   0.2551 0.2551 0.0000  plane waves:     303
 k-point 27 :   0.2653 0.2653 0.0000  plane waves:     303
 k-point 28 :   0.2755 0.2755 0.0000  plane waves:     307
 k-point 29 :   0.2857 0.2857 0.0000  plane waves:     307
 k-point 30 :   0.2959 0.2959 0.0000  plane waves:     311
 k-point 31 :   0.3061 0.3061 0.0000  plane waves:     310
 k-point 32 :   0.3163 0.3163 0.0000  plane waves:     310
 k-point 33 :   0.3265 0.3265 0.0000  plane waves:     310
 k-point 34 :   0.3367 0.3367 0.0000  plane waves:     310
 k-point 35 :   0.3469 0.3469 0.0000  plane waves:     310
 k-point 36 :   0.3571 0.3571 0.0000  plane waves:     310
 k-point 37 :   0.3673 0.3673 0.0000  plane waves:     310
 k-point 38 :   0.3776 0.3776 0.0000  plane waves:     314
 k-point 39 :   0.3878 0.3878 0.0000  plane waves:     310
 k-point 40 :   0.3980 0.3980 0.0000  plane waves:     310
 k-point 41 :   0.4082 0.4082 0.0000  plane waves:     310
 k-point 42 :   0.4184 0.4184 0.0000  plane waves:     310
 k-point 43 :   0.4286 0.4286 0.0000  plane waves:     310
 k-point 44 :   0.4388 0.4388 0.0000  plane waves:     302
 k-point 45 :   0.4490 0.4490 0.0000  plane waves:     302
 k-point 46 :   0.4592 0.4592 0.0000  plane waves:     302
 k-point 47 :   0.4694 0.4694 0.0000  plane waves:     302
 k-point 48 :   0.4796 0.4796 0.0000  plane waves:     302
 k-point 49 :   0.4898 0.4898 0.0000  plane waves:     302
 k-point 50 :   0.5000 0.5000 0.0000  plane waves:     302
 k-point 51 :   0.5000 0.5000 0.0000  plane waves:     302
 k-point 52 :   0.5000 0.5051 0.0051  plane waves:     302
 k-point 53 :   0.5000 0.5102 0.0102  plane waves:     302
 k-point 54 :   0.5000 0.5153 0.0153  plane waves:     302
 k-point 55 :   0.5000 0.5204 0.0204  plane waves:     302
 k-point 56 :   0.5000 0.5255 0.0255  plane waves:     302
 k-point 57 :   0.5000 0.5306 0.0306  plane waves:     302
 k-point 58 :   0.5000 0.5357 0.0357  plane waves:     302
 k-point 59 :   0.5000 0.5408 0.0408  plane waves:     302
 k-point 60 :   0.5000 0.5459 0.0459  plane waves:     302
 k-point 61 :   0.5000 0.5510 0.0510  plane waves:     302
 k-point 62 :   0.5000 0.5561 0.0561  plane waves:     302
 k-point 63 :   0.5000 0.5612 0.0612  plane waves:     304
 k-point 64 :   0.5000 0.5663 0.0663  plane waves:     304
 k-point 65 :   0.5000 0.5714 0.0714  plane waves:     304
 k-point 66 :   0.5000 0.5765 0.0765  plane waves:     304
 k-point 67 :   0.5000 0.5816 0.0816  plane waves:     300
 k-point 68 :   0.5000 0.5867 0.0867  plane waves:     300
 k-point 69 :   0.5000 0.5918 0.0918  plane waves:     304
 k-point 70 :   0.5000 0.5969 0.0969  plane waves:     304
 k-point 71 :   0.5000 0.6020 0.1020  plane waves:     304
 k-point 72 :   0.5000 0.6071 0.1071  plane waves:     304
 k-point 73 :   0.5000 0.6122 0.1122  plane waves:     300
 k-point 74 :   0.5000 0.6173 0.1173  plane waves:     300
 k-point 75 :   0.5000 0.6224 0.1224  plane waves:     300
 k-point 76 :   0.5000 0.6276 0.1276  plane waves:     300
 k-point 77 :   0.5000 0.6327 0.1327  plane waves:     300
 k-point 78 :   0.5000 0.6378 0.1378  plane waves:     300
 k-point 79 :   0.5000 0.6429 0.1429  plane waves:     300
 k-point 80 :   0.5000 0.6480 0.1480  plane waves:     300
 k-point 81 :   0.5000 0.6531 0.1531  plane waves:     300
 k-point 82 :   0.5000 0.6582 0.1582  plane waves:     294
 k-point 83 :   0.5000 0.6633 0.1633  plane waves:     294
 k-point 84 :   0.5000 0.6684 0.1684  plane waves:     294
 k-point 85 :   0.5000 0.6735 0.1735  plane waves:     294
 k-point 86 :   0.5000 0.6786 0.1786  plane waves:     294
 k-point 87 :   0.5000 0.6837 0.1837  plane waves:     294
 k-point 88 :   0.5000 0.6888 0.1888  plane waves:     294
 k-point 89 :   0.5000 0.6939 0.1939  plane waves:     298
 k-point 90 :   0.5000 0.6990 0.1990  plane waves:     298
 k-point 91 :   0.5000 0.7041 0.2041  plane waves:     298
 k-point 92 :   0.5000 0.7092 0.2092  plane waves:     298
 k-point 93 :   0.5000 0.7143 0.2143  plane waves:     302
 k-point 94 :   0.5000 0.7194 0.2194  plane waves:     302
 k-point 95 :   0.5000 0.7245 0.2245  plane waves:     302
 k-point 96 :   0.5000 0.7296 0.2296  plane waves:     302
 k-point 97 :   0.5000 0.7347 0.2347  plane waves:     306
 k-point 98 :   0.5000 0.7398 0.2398  plane waves:     308
 k-point 99 :   0.5000 0.7449 0.2449  plane waves:     308
 k-point ** :   0.5000 0.7500 0.2500  plane waves:     308
 k-point ** :   0.5000 0.7500 0.2500  plane waves:     308
 k-point ** :   0.5000 0.7449 0.2551  plane waves:     308
 k-point ** :   0.5000 0.7398 0.2602  plane waves:     308
 k-point ** :   0.5000 0.7347 0.2653  plane waves:     304
 k-point ** :   0.5000 0.7296 0.2704  plane waves:     300
 k-point ** :   0.5000 0.7245 0.2755  plane waves:     300
 k-point ** :   0.5000 0.7194 0.2806  plane waves:     300
 k-point ** :   0.5000 0.7143 0.2857  plane waves:     300
 k-point ** :   0.5000 0.7092 0.2908  plane waves:     300
 k-point ** :   0.5000 0.7041 0.2959  plane waves:     302
 k-point ** :   0.5000 0.6990 0.3010  plane waves:     302
 k-point ** :   0.5000 0.6939 0.3061  plane waves:     302
 k-point ** :   0.5000 0.6888 0.3112  plane waves:     304
 k-point ** :   0.5000 0.6837 0.3163  plane waves:     302
 k-point ** :   0.5000 0.6786 0.3214  plane waves:     302
 k-point ** :   0.5000 0.6735 0.3265  plane waves:     302
 k-point ** :   0.5000 0.6684 0.3316  plane waves:     296
 k-point ** :   0.5000 0.6633 0.3367  plane waves:     296
 k-point ** :   0.5000 0.6582 0.3418  plane waves:     296
 k-point ** :   0.5000 0.6531 0.3469  plane waves:     296
 k-point ** :   0.5000 0.6480 0.3520  plane waves:     296
 k-point ** :   0.5000 0.6429 0.3571  plane waves:     300
 k-point ** :   0.5000 0.6378 0.3622  plane waves:     300
 k-point ** :   0.5000 0.6327 0.3673  plane waves:     300
 k-point ** :   0.5000 0.6276 0.3724  plane waves:     300
 k-point ** :   0.5000 0.6224 0.3776  plane waves:     300
 k-point ** :   0.5000 0.6173 0.3827  plane waves:     300
 k-point ** :   0.5000 0.6122 0.3878  plane waves:     300
 k-point ** :   0.5000 0.6071 0.3929  plane waves:     300
 k-point ** :   0.5000 0.6020 0.3980  plane waves:     300
 k-point ** :   0.5000 0.5969 0.4031  plane waves:     300
 k-point ** :   0.5000 0.5918 0.4082  plane waves:     300
 k-point ** :   0.5000 0.5867 0.4133  plane waves:     300
 k-point ** :   0.5000 0.5816 0.4184  plane waves:     300
 k-point ** :   0.5000 0.5765 0.4235  plane waves:     300
 k-point ** :   0.5000 0.5714 0.4286  plane waves:     298
 k-point ** :   0.5000 0.5663 0.4337  plane waves:     298
 k-point ** :   0.5000 0.5612 0.4388  plane waves:     298
 k-point ** :   0.5000 0.5561 0.4439  plane waves:     298
 k-point ** :   0.5000 0.5510 0.4490  plane waves:     300
 k-point ** :   0.5000 0.5459 0.4541  plane waves:     298
 k-point ** :   0.5000 0.5408 0.4592  plane waves:     298
 k-point ** :   0.5000 0.5357 0.4643  plane waves:     304
 k-point ** :   0.5000 0.5306 0.4694  plane waves:     300
 k-point ** :   0.5000 0.5255 0.4745  plane waves:     302
 k-point ** :   0.5000 0.5204 0.4796  plane waves:     302
 k-point ** :   0.5000 0.5153 0.4847  plane waves:     302
 k-point ** :   0.5000 0.5102 0.4898  plane waves:     302
 k-point ** :   0.5000 0.5051 0.4949  plane waves:     302
 k-point ** :   0.5000 0.5000 0.5000  plane waves:     302
 k-point ** :   0.5000 0.5000 0.5000  plane waves:     302
 k-point ** :   0.4898 0.4898 0.4898  plane waves:     302
 k-point ** :   0.4796 0.4796 0.4796  plane waves:     302
 k-point ** :   0.4694 0.4694 0.4694  plane waves:     302
 k-point ** :   0.4592 0.4592 0.4592  plane waves:     302
 k-point ** :   0.4490 0.4490 0.4490  plane waves:     296
 k-point ** :   0.4388 0.4388 0.4388  plane waves:     296
 k-point ** :   0.4286 0.4286 0.4286  plane waves:     296
 k-point ** :   0.4184 0.4184 0.4184  plane waves:     296
 k-point ** :   0.4082 0.4082 0.4082  plane waves:     296
 k-point ** :   0.3980 0.3980 0.3980  plane waves:     296
 k-point ** :   0.3878 0.3878 0.3878  plane waves:     302
 k-point ** :   0.3776 0.3776 0.3776  plane waves:     302
 k-point ** :   0.3673 0.3673 0.3673  plane waves:     302
 k-point ** :   0.3571 0.3571 0.3571  plane waves:     305
 k-point ** :   0.3469 0.3469 0.3469  plane waves:     302
 k-point ** :   0.3367 0.3367 0.3367  plane waves:     302
 k-point ** :   0.3265 0.3265 0.3265  plane waves:     302
 k-point ** :   0.3163 0.3163 0.3163  plane waves:     302
 k-point ** :   0.3061 0.3061 0.3061  plane waves:     302
 k-point ** :   0.2959 0.2959 0.2959  plane waves:     302
 k-point ** :   0.2857 0.2857 0.2857  plane waves:     302
 k-point ** :   0.2755 0.2755 0.2755  plane waves:     302
 k-point ** :   0.2653 0.2653 0.2653  plane waves:     302
 k-point ** :   0.2551 0.2551 0.2551  plane waves:     302
 k-point ** :   0.2449 0.2449 0.2449  plane waves:     302
 k-point ** :   0.2347 0.2347 0.2347  plane waves:     302
 k-point ** :   0.2245 0.2245 0.2245  plane waves:     305
 k-point ** :   0.2143 0.2143 0.2143  plane waves:     311
 k-point ** :   0.2041 0.2041 0.2041  plane waves:     311
 k-point ** :   0.1939 0.1939 0.1939  plane waves:     311
 k-point ** :   0.1837 0.1837 0.1837  plane waves:     310
 k-point ** :   0.1735 0.1735 0.1735  plane waves:     310
 k-point ** :   0.1633 0.1633 0.1633  plane waves:     310
 k-point ** :   0.1531 0.1531 0.1531  plane waves:     310
 k-point ** :   0.1429 0.1429 0.1429  plane waves:     310
 k-point ** :   0.1327 0.1327 0.1327  plane waves:     310
 k-point ** :   0.1224 0.1224 0.1224  plane waves:     310
 k-point ** :   0.1122 0.1122 0.1122  plane waves:     310
 k-point ** :   0.1020 0.1020 0.1020  plane waves:     307
 k-point ** :   0.0918 0.0918 0.0918  plane waves:     307
 k-point ** :   0.0816 0.0816 0.0816  plane waves:     307
 k-point ** :   0.0714 0.0714 0.0714  plane waves:     307
 k-point ** :   0.0612 0.0612 0.0612  plane waves:     307
 k-point ** :   0.0510 0.0510 0.0510  plane waves:     313
 k-point ** :   0.0408 0.0408 0.0408  plane waves:     313
 k-point ** :   0.0306 0.0306 0.0306  plane waves:     307
 k-point ** :   0.0204 0.0204 0.0204  plane waves:     310
 k-point ** :   0.0102 0.0102 0.0102  plane waves:     307
 k-point ** :   0.0000 0.0000 0.0000  plane waves:     307
 k-point ** :   0.0000 0.0000 0.0000  plane waves:     307
 k-point ** :   0.0077 0.0153 0.0077  plane waves:     307
 k-point ** :   0.0153 0.0306 0.0153  plane waves:     311
 k-point ** :   0.0230 0.0459 0.0230  plane waves:     307
 k-point ** :   0.0306 0.0612 0.0306  plane waves:     311
 k-point ** :   0.0383 0.0765 0.0383  plane waves:     311
 k-point ** :   0.0459 0.0918 0.0459  plane waves:     311
 k-point ** :   0.0536 0.1071 0.0536  plane waves:     311
 k-point ** :   0.0612 0.1224 0.0612  plane waves:     311
 k-point ** :   0.0689 0.1378 0.0689  plane waves:     311
 k-point ** :   0.0765 0.1531 0.0765  plane waves:     307
 k-point ** :   0.0842 0.1684 0.0842  plane waves:     307
 k-point ** :   0.0918 0.1837 0.0918  plane waves:     307
 k-point ** :   0.0995 0.1990 0.0995  plane waves:     307
 k-point ** :   0.1071 0.2143 0.1071  plane waves:     307
 k-point ** :   0.1148 0.2296 0.1148  plane waves:     305
 k-point ** :   0.1224 0.2449 0.1224  plane waves:     305
 k-point ** :   0.1301 0.2602 0.1301  plane waves:     305
 k-point ** :   0.1378 0.2755 0.1378  plane waves:     305
 k-point ** :   0.1454 0.2908 0.1454  plane waves:     303
 k-point ** :   0.1531 0.3061 0.1531  plane waves:     303
 k-point ** :   0.1607 0.3214 0.1607  plane waves:     303
 k-point ** :   0.1684 0.3367 0.1684  plane waves:     303
 k-point ** :   0.1760 0.3520 0.1760  plane waves:     303
 k-point ** :   0.1837 0.3673 0.1837  plane waves:     303
 k-point ** :   0.1913 0.3827 0.1913  plane waves:     303
 k-point ** :   0.1990 0.3980 0.1990  plane waves:     305
 k-point ** :   0.2066 0.4133 0.2066  plane waves:     303
 k-point ** :   0.2143 0.4286 0.2143  plane waves:     303
 k-point ** :   0.2219 0.4439 0.2219  plane waves:     305
 k-point ** :   0.2296 0.4592 0.2296  plane waves:     303
 k-point ** :   0.2372 0.4745 0.2372  plane waves:     303
 k-point ** :   0.2449 0.4898 0.2449  plane waves:     303
 k-point ** :   0.2526 0.5051 0.2526  plane waves:     307
 k-point ** :   0.2602 0.5204 0.2602  plane waves:     303
 k-point ** :   0.2679 0.5357 0.2679  plane waves:     303
 k-point ** :   0.2755 0.5510 0.2755  plane waves:     303
 k-point ** :   0.2832 0.5663 0.2832  plane waves:     299
 k-point ** :   0.2908 0.5816 0.2908  plane waves:     293
 k-point ** :   0.2985 0.5969 0.2985  plane waves:     293
 k-point ** :   0.3061 0.6122 0.3061  plane waves:     293
 k-point ** :   0.3138 0.6276 0.3138  plane waves:     293
 k-point ** :   0.3214 0.6429 0.3214  plane waves:     293
 k-point ** :   0.3291 0.6582 0.3291  plane waves:     289
 k-point ** :   0.3367 0.6735 0.3367  plane waves:     292
 k-point ** :   0.3444 0.6888 0.3444  plane waves:     288
 k-point ** :   0.3520 0.7041 0.3520  plane waves:     296
 k-point ** :   0.3597 0.7194 0.3597  plane waves:     296
 k-point ** :   0.3673 0.7347 0.3673  plane waves:     296
 k-point ** :   0.3750 0.7500 0.3750  plane waves:     296

 maximum number of plane-waves:       314
 maximum index in each direction: 
   IXMAX=    4   IYMAX=    4   IZMAX=    4
   IXMIN=   -5   IYMIN=   -5   IZMIN=   -5

 NGX is ok and might be reduce to  20
 NGY is ok and might be reduce to  20
 NGZ is ok and might be reduce to  20

 total amount of memory used by VASP on root node    64292. kBytes
========================================================================

   base      :      30000. kBytes
   nonl-proj :       5029. kBytes
   grid      :       3500. kBytes
   one-center:          3. kBytes
   wavefun   :      25760. kBytes
 
 For storing wavefunctions   24.24 MBYTES are necessary
 For predicting wavefunctions    0.77 MBYTES are necessary
 initial charge density was supplied:
 number of electron       3.0000000 magnetization 
 keeping initial charge density in first step


--------------------------------------------------------------------------------------------------------


 Maximum index for augmentation-charges        18173 (set IRDMAX)


--------------------------------------------------------------------------------------------------------


 First call to EWALD:  gamma=   0.695
 Maximum number of real-space cells 3x 3x 3
 Maximum number of reciprocal cells 3x 3x 3

    FEWALD:  cpu time    0.00: real time    0.00


----------------------------------------- Iteration    1(   1)  ---------------------------------------


    POTLOK:  cpu time    0.03: real time    0.03
    SETDIJ:  cpu time    0.00: real time    0.00
     EDDAV:  cpu time    8.36: real time    8.36
       DOS:  cpu time    0.00: real time    0.00
    --------------------------------------------
      LOOP:  cpu time    8.39: real time    8.40

 eigenvalue-minimisations  : 14452
 total energy-change (2. order) :-0.3810367E+01  (-0.2792504E+02)
 number of electron       3.0000000 magnetization 
 augmentation part        3.0000000 magnetization 

 Free energy of the ion-electron system (eV)
  ---------------------------------------------------
  alpha Z        PSCENC =        -0.20224632
  Ewald energy   TEWEN  =       -73.35670894
  -1/2 Hartree   DENC   =        -0.10364839
  -exchange  EXHF       =         0.00000000
  -V(xc)+E(xc)   XCENC  =       -26.14384766
  PAW double counting   =        35.65463646       -3.71120343
  entropy T*S    EENTRO =        -0.00000000
  eigenvalues    EBANDS =        10.51449645
  atomic energy  EATOM  =        53.53815432
  ---------------------------------------------------
  free energy    TOTEN  =        -3.81036749 eV

  energy without entropy =       -3.81036749  energy(sigma->0) =       -3.81036749


--------------------------------------------------------------------------------------------------------




----------------------------------------- Iteration    1(   2)  ---------------------------------------


     EDDAV:  cpu time    7.62: real time    7.63
       DOS:  cpu time    0.00: real time    0.00
    --------------------------------------------
      LOOP:  cpu time    7.62: real time    7.63

 eigenvalue-minimisations  : 12920
 total energy-change (2. order) :-0.7931841E+00  (-0.7475010E+00)
 number of electron       3.0000000 magnetization 
 augmentation part        3.0000000 magnetization 

 Free energy of the ion-electron system (eV)
  ---------------------------------------------------
  alpha Z        PSCENC =        -0.20224632
  Ewald energy   TEWEN  =       -73.35670894
  -1/2 Hartree   DENC   =        -0.10364839
  -exchange  EXHF       =         0.00000000
  -V(xc)+E(xc)   XCENC  =       -26.14384766
  PAW double counting   =        35.65463646       -3.71120343
  entropy T*S    EENTRO =        -0.00000000
  eigenvalues    EBANDS =         9.72131231
  atomic energy  EATOM  =        53.53815432
  ---------------------------------------------------
  free energy    TOTEN  =        -4.60355163 eV

  energy without entropy =       -4.60355163  energy(sigma->0) =       -4.60355163


--------------------------------------------------------------------------------------------------------




----------------------------------------- Iteration    1(   3)  ---------------------------------------


     EDDAV:  cpu time    7.90: real time    7.90
       DOS:  cpu time    0.00: real time    0.00
    --------------------------------------------
      LOOP:  cpu time    7.90: real time    7.91

 eigenvalue-minimisations  : 13308
 total energy-change (2. order) :-0.1758966E-02  (-0.1758514E-02)
 number of electron       3.0000000 magnetization 
 augmentation part        3.0000000 magnetization 

 Free energy of the ion-electron system (eV)
  ---------------------------------------------------
  alpha Z        PSCENC =        -0.20224632
  Ewald energy   TEWEN  =       -73.35670894
  -1/2 Hartree   DENC   =        -0.10364839
  -exchange  EXHF       =         0.00000000
  -V(xc)+E(xc)   XCENC  =       -26.14384766
  PAW double counting   =        35.65463646       -3.71120343
  entropy T*S    EENTRO =        -0.00000000
  eigenvalues    EBANDS =         9.71955335
  atomic energy  EATOM  =        53.53815432
  ---------------------------------------------------
  free energy    TOTEN  =        -4.60531060 eV

  energy without entropy =       -4.60531060  energy(sigma->0) =       -4.60531060


--------------------------------------------------------------------------------------------------------




----------------------------------------- Iteration    1(   4)  ---------------------------------------


     EDDAV:  cpu time    7.46: real time    7.47
       DOS:  cpu time    0.00: real time    0.00
    --------------------------------------------
      LOOP:  cpu time    7.46: real time    7.47

 eigenvalue-minimisations  : 12604
 total energy-change (2. order) :-0.1029283E-05  (-0.1029079E-05)
 number of electron       3.0000000 magnetization 
 augmentation part        3.0000000 magnetization 

 Free energy of the ion-electron system (eV)
  ---------------------------------------------------
  alpha Z        PSCENC =        -0.20224632
  Ewald energy   TEWEN  =       -73.35670894
  -1/2 Hartree   DENC   =        -0.10364839
  -exchange  EXHF       =         0.00000000
  -V(xc)+E(xc)   XCENC  =       -26.14384766
  PAW double counting   =        35.65463646       -3.71120343
  entropy T*S    EENTRO =        -0.00000000
  eigenvalues    EBANDS =         9.71955232
  atomic energy  EATOM  =        53.53815432
  ---------------------------------------------------
  free energy    TOTEN  =        -4.60531162 eV

  energy without entropy =       -4.60531162  energy(sigma->0) =       -4.60531162


--------------------------------------------------------------------------------------------------------




 average (electrostatic) potential at core
  the test charge radii are     1.0406
  (the norm of the test charge is              1.0000)
       1 -72.7039
 
 
 
 E-fermi :   7.6155     XC(G=0): -10.1731     alpha+bet :-14.7800


 k-point   1 :       0.0000    0.0000    0.0000
  band No.  band energies     occupation 
      1      -3.1566      2.00000
      2      20.5186      0.00000
      3      20.5186      0.00000
      4      20.5186      0.00000
      5      21.9593      0.00000
      6      21.9593      0.00000
      7      21.9593      0.00000
      8      24.3520      0.00000
[...]
      4      16.8372      0.00000
      5      18.7620      0.00000
      6      25.4917      0.00000
      7      25.9980      0.00000
      8      27.1412      0.00000
      9      29.2333      0.00000
     10      32.9601      0.00000
     11      36.2325      0.00000
     12      38.4314      0.00000
     13      45.6927      0.00000
     14      45.7704      0.00000
     15      47.7064      0.00000
     16      49.2930      0.00000
     17      52.3779      0.00000
     18      53.4693      0.00000
     19      54.3412      0.00000
     20      56.1234      0.00000

 k-point 237 :       0.2755    0.5510    0.2755
  band No.  band energies     occupation 
      1       2.2213      2.00000
      2       8.3669      0.00000
      3       9.8558      0.00000
      4      16.6205      0.00000
      5      18.5288      0.00000
      6      25.7745      0.00000
      7      26.2229      0.00000
      8      27.3818      0.00000
      9      29.2192      0.00000
     10      32.8852      0.00000
     11      36.4992      0.00000
     12      38.4381      0.00000
     13      46.1320      0.00000
     14      46.3859      0.00000
     15      47.4325      0.00000
     16      49.3563      0.00000
     17      52.3323      0.00000
     18      53.5250      0.00000
     19      54.6417      0.00000
     20      55.9791      0.00000

 k-point 238 :       0.2832    0.5663    0.2832
  band No.  band energies     occupation 
      1       2.5180      2.00000
      2       8.1424      0.00000
      3       9.6276      0.00000
      4      16.4111      0.00000
      5      18.3021      0.00000
      6      26.0662      0.00000
      7      26.4542      0.00000
      8      27.6287      0.00000
      9      29.1143      0.00000
     10      32.8528      0.00000
     11      36.7714      0.00000
     12      38.5111      0.00000
     13      46.4696      0.00000
     14      47.0498      0.00000
     15      47.1673      0.00000
     16      49.3509      0.00000
     17      52.3521      0.00000
     18      53.5850      0.00000
     19      55.0229      0.00000
     20      55.8078      0.00000

 k-point 239 :       0.2908    0.5816    0.2908
  band No.  band energies     occupation 
      1       2.8221      2.00000
      2       7.9258      0.00000
      3       9.4067      0.00000
      4      16.2090      0.00000
      5      18.0819      0.00000
      6      26.3635      0.00000
      7      26.6921      0.00000
      8      27.8822      0.00000
      9      28.9112      0.00000
     10      32.8813      0.00000
     11      37.0507      0.00000
     12      38.6377      0.00000
     13      46.7953      0.00000
     14      46.9031      0.00000
     15      47.6672      0.00000
     16      49.2830      0.00000
     17      52.4122      0.00000
     18      53.6132      0.00000
     19      55.2006      0.00000
     20      55.6353      0.00000

 k-point 240 :       0.2985    0.5969    0.2985
  band No.  band energies     occupation 
      1       3.1335      2.00000
      2       7.7170      0.00000
      3       9.1931      0.00000
      4      16.0140      0.00000
      5      17.8682      0.00000
      6      26.6674      0.00000
      7      26.9353      0.00000
      8      28.1405      0.00000
      9      28.6163      0.00000
     10      32.9743      0.00000
     11      37.3338      0.00000
     12      38.8067      0.00000
     13      46.6433      0.00000
     14      47.0743      0.00000
     15      48.2096      0.00000
     16      49.1659      0.00000
     17      52.5365      0.00000
     18      53.6534      0.00000
     19      54.6687      0.00000
     20      55.5550      0.00000

 k-point 241 :       0.3061    0.6122    0.3061
  band No.  band energies     occupation 
      1       3.4521      2.00000
      2       7.5160      2.00000
      3       8.9869      0.00000
      4      15.8263      0.00000
      5      17.6612      0.00000
      6      26.9780      0.00000
      7      27.1843      0.00000
      8      28.2450      0.00000
      9      28.4045      0.00000
     10      33.1258      0.00000
     11      37.6221      0.00000
     12      39.0096      0.00000
     13      46.3874      0.00000
     14      47.3190      0.00000
     15      48.6517      0.00000
     16      49.0077      0.00000
     17      52.7551      0.00000
     18      53.6672      0.00000
     19      54.0446      0.00000
     20      55.3660      0.00000

 k-point 242 :       0.3138    0.6276    0.3138
  band No.  band energies     occupation 
      1       3.7778      2.00000
      2       7.3229      2.00000
      3       8.7883      0.00000
      4      15.6458      0.00000
      5      17.4609      0.00000
      6      27.2952      0.00000
      7      27.4389      0.00000
      8      27.8149      0.00000
      9      28.6739      0.00000
     10      33.3249      0.00000
     11      37.9155      0.00000
     12      39.2392      0.00000
     13      46.1351      0.00000
     14      47.5267      0.00000
     15      48.8134      0.00000
     16      48.9722      0.00000
     17      53.0972      0.00000
     18      53.6545      0.00000
     19      53.7004      0.00000
     20      55.1545      0.00000

 k-point 243 :       0.3214    0.6429    0.3214
  band No.  band energies     occupation 
      1       4.1103      2.00000
      2       7.1376      2.00000
      3       8.5974      0.00000
      4      15.4726      0.00000
      5      17.2675      0.00000
      6      27.3416      0.00000
      7      27.6187      0.00000
      8      27.6990      0.00000
      9      28.9486      0.00000
     10      33.5612      0.00000
     11      38.2137      0.00000
     12      39.4898      0.00000
     13      45.8855      0.00000
     14      47.6950      0.00000
     15      48.5857      0.00000
     16      49.1669      0.00000
     17      53.0918      0.00000
     18      53.5621      0.00000
     19      53.7243      0.00000
     20      54.9155      0.00000

 k-point 244 :       0.3291    0.6582    0.3291
  band No.  band energies     occupation 
      1       4.4497      2.00000
      2       6.9601      2.00000
      3       8.4145      0.00000
      4      15.3068      0.00000
      5      17.0810      0.00000
      6      26.8378      0.00000
      7      27.9491      0.00000
      8      27.9652      0.00000
      9      29.2292      0.00000
     10      33.8263      0.00000
     11      38.5167      0.00000
     12      39.7570      0.00000
     13      45.6384      0.00000
     14      47.8313      0.00000
     15      48.3267      0.00000
     16      49.2503      0.00000
     17      52.6233      0.00000
     18      53.9239      0.00000
     19      54.1550      0.00000
     20      54.6953      0.00000

 k-point 245 :       0.3367    0.6735    0.3367
  band No.  band energies     occupation 
      1       4.7955      2.00000
      2       6.7904      2.00000
      3       8.2397      0.00000
      4      15.1481      0.00000
      5      16.9011      0.00000
      6      26.3108      0.00000
      7      28.2353      0.00000
      8      28.2847      0.00000
      9      29.5134      0.00000
     10      34.1136      0.00000
     11      38.8226      0.00000
     12      40.0372      0.00000
     13      45.3927      0.00000
     14      47.9232      0.00000
     15      48.0348      0.00000
     16      49.2392      0.00000
     17      52.2713      0.00000
     18      53.8868      0.00000
     19      54.4212      0.00000
     20      54.5885      0.00000

 k-point 246 :       0.3444    0.6888    0.3444
  band No.  band energies     occupation 
      1       5.1474      2.00000
      2       6.6285      2.00000
      3       8.0735      0.00000
      4      14.9968      0.00000
      5      16.7285      0.00000
      6      25.7709      0.00000
      7      28.5103      0.00000
      8      28.6262      0.00000
      9      29.8030      0.00000
     10      34.4193      0.00000
     11      39.1341      0.00000
     12      40.3318      0.00000
     13      45.1483      0.00000
     14      47.7164      0.00000
     15      47.9715      0.00000
     16      49.1691      0.00000
     17      51.8824      0.00000
     18      53.7643      0.00000
     19      54.4525      0.00000
     20      54.9561      0.00000

 k-point 247 :       0.3520    0.7041    0.3520
  band No.  band energies     occupation 
      1       5.5047      2.00000
      2       6.4744      2.00000
      3       7.9163      0.00000
      4      14.8526      0.00000
      5      16.5621      0.00000
      6      25.2212      0.00000
      7      28.7883      0.00000
      8      28.9721      0.00000
      9      30.0953      0.00000
     10      34.7389      0.00000
     11      39.4444      0.00000
     12      40.6285      0.00000
     13      44.8992      0.00000
     14      47.3543      0.00000
     15      47.9820      0.00000
     16      49.0145      0.00000
     17      51.5339      0.00000
     18      53.3987      0.00000
     19      54.3517      0.00000
     20      54.6804      0.00000

 k-point 248 :       0.3597    0.7194    0.3597
  band No.  band energies     occupation 
      1       5.8661      2.00000
      2       6.3282      2.00000
      3       7.7696      0.00000
      4      14.7158      0.00000
      5      16.4029      0.00000
      6      24.6660      0.00000
      7      29.0713      0.00000
      8      29.3233      0.00000
      9      30.3919      0.00000
     10      35.0705      0.00000
     11      39.7560      0.00000
     12      40.9300      0.00000
     13      44.6538      0.00000
     14      46.9859      0.00000
     15      47.9631      0.00000
     16      48.8341      0.00000
     17      51.2230      0.00000
     18      52.6787      0.00000
     19      54.2326      0.00000
     20      56.5152      0.00000

 k-point 249 :       0.3673    0.7347    0.3673
  band No.  band energies     occupation 
      1       6.1897      2.00000
      2       6.2287      2.00000
      3       7.6360      0.00000
      4      14.5864      0.00000
      5      16.2505      0.00000
      6      24.1083      0.00000
      7      29.3578      0.00000
      8      29.6789      0.00000
      9      30.6918      0.00000
     10      35.4122      0.00000
     11      40.0663      0.00000
     12      41.2335      0.00000
     13      44.4065      0.00000
     14      46.5978      0.00000
     15      47.9167      0.00000
     16      48.6129      0.00000
     17      50.9593      0.00000
     18      52.2090      0.00000
     19      53.4219      0.00000
     20      54.1864      0.00000

 k-point 250 :       0.3750    0.7500    0.3750
  band No.  band energies     occupation 
      1       6.0591      2.00000
      2       6.5840      2.00000
      3       7.5242      2.00000
      4      14.4642      0.00000
      5      16.1046      0.00000
      6      23.5505      0.00000
      7      29.6471      0.00000
      8      30.0383      0.00000
      9      30.9942      0.00000
     10      35.7623      0.00000
     11      40.3732      0.00000
     12      41.5364      0.00000
     13      44.1564      0.00000
     14      46.1943      0.00000
     15      47.8476      0.00000
     16      48.3626      0.00000
     17      50.7281      0.00000
     18      51.9534      0.00000
     19      53.3470      0.00000
     20      54.4517      0.00000


--------------------------------------------------------------------------------------------------------


 soft charge-density along one line, spin component           1
         0         1         2         3         4         5         6         7         8         9
x     0.0000    0.0000    0.0000    0.0000    0.0000    0.0000    0.0000    0.0000    0.0000    0.0000
x     0.0000    0.0000    0.0000    0.0000    0.0000    0.0000    0.0000    0.0000    0.0000    0.0000
x     0.0000    0.0000
y     0.0000    0.0000    0.0000    0.0000    0.0000    0.0000    0.0000    0.0000    0.0000    0.0000
y     0.0000    0.0000    0.0000    0.0000    0.0000    0.0000    0.0000    0.0000    0.0000    0.0000
y     0.0000    0.0000
z     0.0000    0.0000    0.0000    0.0000    0.0000    0.0000    0.0000    0.0000    0.0000    0.0000
z     0.0000    0.0000    0.0000    0.0000    0.0000    0.0000    0.0000    0.0000    0.0000    0.0000
z     0.0000    0.0000
 total charge-density along one line
x     3.0000    0.0000    0.0093    0.0000   -0.0278    0.0000    0.0016    0.0000    0.0001    0.0000
x    -0.0000    0.0000    0.0000   -0.0000   -0.0000   -0.0000    0.0000    0.0000   -0.0000   -0.0000
x    -0.0000   -0.0000    0.0000   -0.0000   -0.0000    0.0000    0.0000    0.0000   -0.0000    0.0000
x     0.0000    0.0000   -0.0000    0.0000    0.0000    0.0000    0.0000   -0.0000   -0.0000    0.0000
x     0.0000    0.0000
y     3.0000    0.0000    0.0093    0.0000   -0.0278   -0.0000    0.0016   -0.0000    0.0001   -0.0000
y    -0.0000    0.0000    0.0000    0.0000   -0.0000   -0.0000    0.0000   -0.0000   -0.0000   -0.0000
y    -0.0000    0.0000    0.0000    0.0000   -0.0000    0.0000    0.0000    0.0000   -0.0000    0.0000
y     0.0000    0.0000   -0.0000    0.0000    0.0000   -0.0000    0.0000   -0.0000   -0.0000   -0.0000
y     0.0000   -0.0000
z     3.0000    0.0000    0.0093    0.0000   -0.0278    0.0000    0.0016   -0.0000    0.0001    0.0000
z    -0.0000    0.0000    0.0000    0.0000   -0.0000   -0.0000    0.0000    0.0000   -0.0000    0.0000
z    -0.0000   -0.0000    0.0000   -0.0000   -0.0000    0.0000    0.0000   -0.0000   -0.0000   -0.0000
z     0.0000    0.0000   -0.0000   -0.0000    0.0000   -0.0000    0.0000   -0.0000   -0.0000    0.0000
z     0.0000   -0.0000
 
 pseudopotential strength for first ion, spin component:           1
  8.446  -0.006   0.000   0.000   0.000   0.000   0.000   0.000
 -0.006   0.000   0.000   0.000   0.000  -0.000  -0.000  -0.000
  0.000   0.000   1.988   0.000   0.000  -0.026  -0.000  -0.000
  0.000   0.000   0.000   1.988   0.000  -0.000  -0.026  -0.000
  0.000   0.000   0.000   0.000   1.988  -0.000  -0.000  -0.026
  0.000  -0.000  -0.026  -0.000  -0.000  -0.012  -0.000  -0.000
  0.000  -0.000  -0.000  -0.026  -0.000  -0.000  -0.012  -0.000
  0.000  -0.000  -0.000  -0.000  -0.026  -0.000  -0.000  -0.012
 total augmentation occupancy for first ion, spin component:           1
  2.000   0.000   0.000   0.000   0.000   0.000   0.000   0.000
  0.000   0.000   0.000   0.000   0.000   0.000   0.000   0.000
  0.000   0.000   0.333   0.000   0.000   0.000   0.000   0.000
  0.000   0.000   0.000   0.333   0.000   0.000   0.000   0.000
  0.000   0.000   0.000   0.000   0.333   0.000   0.000   0.000
  0.000   0.000   0.000   0.000   0.000   0.000   0.000   0.000
  0.000   0.000   0.000   0.000   0.000   0.000   0.000   0.000
  0.000   0.000   0.000   0.000   0.000   0.000   0.000   0.000


------------------------ aborting loop because EDIFF is reached ----------------------------------------


    CHARGE:  cpu time    0.08: real time    0.08
    FORLOC:  cpu time    0.00: real time    0.00
    FORNL :  cpu time    0.11: real time    0.11
    STRESS:  cpu time    0.24: real time    0.24
    FORCOR:  cpu time    0.03: real time    0.03
    FORHAR:  cpu time    0.01: real time    0.01

  FORCE on cell =-STRESS in cart. coord.  units (eV):
  Direction    XX          YY          ZZ          XY          YZ          ZX
  --------------------------------------------------------------------------------------
  Alpha Z    -0.20225    -0.20225    -0.20225
  Ewald     -24.45224   -24.45224   -24.45224    -0.00000     0.00000     0.00000
  Hartree     0.03351     0.03351     0.03351     0.00000     0.00000     0.00000
  E(xc)      -8.54432    -8.54432    -8.54432     0.00000     0.00000     0.00000
  Local       0.34904     0.34904     0.34904    -0.00000    -0.00000    -0.00000
  n-local    18.66319    19.57771    18.30199    -0.29720    -0.29549    -0.35902
  augment    -1.05946    -1.05946    -1.05946     0.00000     0.00000     0.00000
  Kinetic     8.51624     9.61083    24.88719     4.61049     3.64370     6.14469
  Fock        0.00000     0.00000     0.00000     0.00000     0.00000     0.00000
  -------------------------------------------------------------------------------------
  Total      -0.69001    -0.69001    -0.69001     0.00000     0.00000    -0.00000
  in kB     -66.56699   -66.56699   -66.56699     0.00000     0.00000    -0.00000
  external pressure =      -66.57 kB  Pullay stress =        0.00 kB


 VOLUME and BASIS-vectors are now :
 -----------------------------------------------------------------------------
  energy-cutoff  :      400.00
  volume of cell :       16.61
      direct lattice vectors                 reciprocal lattice vectors
     0.000000000  2.025000000  2.025000000    -0.246913580  0.246913580  0.246913580
     2.025000000  0.000000000  2.025000000     0.246913580 -0.246913580  0.246913580
     2.025000000  2.025000000  0.000000000     0.246913580  0.246913580 -0.246913580

  length of vectors
     2.863782464  2.863782464  2.863782464     0.427666866  0.427666866  0.427666866


 FORCES acting on ions
    electron-ion (+dipol)            ewald-force                    non-local-force                 convergence-correction
 -----------------------------------------------------------------------------------------------
   -.993E-15 -.174E-15 -.449E-15   -.758E-16 -.122E-15 -.249E-16   0.662E-23 0.000E+00 0.662E-23   -.264E-18 -.227E-17 0.335E-17
 -----------------------------------------------------------------------------------------------
   -.993E-15 -.174E-15 -.449E-15   -.758E-16 -.122E-15 -.249E-16   0.662E-23 0.000E+00 0.662E-23   -.264E-18 -.227E-17 0.335E-17
 
 
 POSITION                                       TOTAL-FORCE (eV/Angst)
 -----------------------------------------------------------------------------------
      0.00000      0.00000      0.00000         0.000000      0.000000      0.000000
 -----------------------------------------------------------------------------------
    total drift:                               -0.000000     -0.000000     -0.000000


--------------------------------------------------------------------------------------------------------



  FREE ENERGIE OF THE ION-ELECTRON SYSTEM (eV)
  ---------------------------------------------------
  free  energy   TOTEN  =        -4.60531162 eV

  energy  without entropy=       -4.60531162  energy(sigma->0) =       -4.60531162
 


--------------------------------------------------------------------------------------------------------


    POTLOK:  cpu time    0.04: real time    0.04


--------------------------------------------------------------------------------------------------------




--------------------------------------------------------------------------------------------------------


  
 reached required accuracy - stopping structural energy minimisation
 writing wavefunctions
     LOOP+:  cpu time   31.99: real time   32.08
    4ORBIT:  cpu time    0.00: real time    0.00

 total amount of memory used by VASP on root node    64292. kBytes
========================================================================

   base      :      30000. kBytes
   nonl-proj :       5029. kBytes
   grid      :       3500. kBytes
   one-center:          3. kBytes
   wavefun   :      25760. kBytes
 
  
  
 General timing and accounting informations for this job:
 ========================================================
  
                  Total CPU time used (sec):       32.291
                            User time (sec):       32.219
                          System time (sec):        0.072
                         Elapsed time (sec):       32.498
  
                   Maximum memory used (kb):       98080.
                   Average memory used (kb):           0.
  
                          Minor page faults:        27537
                          Major page faults:           14
                 Voluntary context switches:          633
